# vtk DataFile Version 3.0
Temperature distribution on a 2D grid
ASCII

DATASET STRUCTURED_POINTS
DIMENSIONS 50 50 1
ORIGIN 0.0 0.0 0.0
SPACING 0.01 0.01 1.0

POINT_DATA 2500
SCALARS temperature double
LOOKUP_TABLE default
20.4258 19.721 19.8747 20.0314 20.1874 20.3387 20.4818 20.6129 20.729 20.8271 20.9048 20.9603 20.9921 20.9995 20.9823 20.9409 20.8763 20.7902 20.6845 20.5621 20.4258 20.279 20.1253 19.9686 19.8126 19.6613 19.5182 19.3871 19.271 19.1729 19.0952 19.0397 19.0079 19.0005 19.0177 19.0591 19.1237 19.2098 19.3155 19.4379 19.5742 19.721 19.8747 20.0314 20.1874 20.3387 20.4818 20.6129 20.729 20.9048 
20.5621 20.1524 20.0871 20.1193 20.1844 20.2571 20.3272 20.3903 20.4441 20.4869 20.5178 20.536 20.5409 20.5326 20.5111 20.477 20.4312 20.3748 20.3091 20.2358 20.1568 20.0738 19.9891 19.9046 19.8224 19.7447 19.6732 19.6098 19.5559 19.5131 19.4822 19.464 19.4591 19.4674 19.4889 19.523 19.5688 19.6252 19.6909 19.7642 19.8433 19.9262 20.0112 20.0964 20.1812 20.2682 20.3672 20.4997 20.6938 20.9603 
20.6845 20.301 20.144 20.1019 20.1094 20.1338 20.1613 20.1866 20.2079 20.2241 20.2349 20.2399 20.2389 20.2321 20.2196 20.2016 20.1787 20.1514 20.1204 20.0864 20.0503 20.0129 19.9752 19.9382 19.9026 19.8695 19.8395 19.8135 19.7921 19.7759 19.7651 19.7601 19.7611 19.7679 19.7804 19.7984 19.8213 19.8486 19.8796 19.9136 19.9497 19.9872 20.0251 20.0634 20.1034 20.1517 20.2268 20.3666 20.6194 20.9921 
20.7902 20.3766 20.165 20.08 20.0565 20.0568 20.0642 20.0725 20.0797 20.0851 20.0884 20.0895 20.0885 20.0852 20.0799 20.0726 20.0635 20.0529 20.0409 20.028 20.0143 20.0003 19.9863 19.9726 19.9596 19.9476 19.9369 19.9277 19.9204 19.9149 19.9116 19.9105 19.9115 19.9148 19.9201 19.9274 19.9365 19.9471 19.9591 19.972 19.9857 19.9998 20.0141 20.0291 20.0473 20.0768 20.1399 20.282 20.5628 20.9995 
20.8763 20.432 20.1838 20.0731 20.0336 20.0231 20.0224 20.0241 20.0261 20.0277 20.0286 20.0288 20.0283 20.0271 20.0253 20.0228 20.0198 20.0163 20.0123 20.0081 20.0037 19.9992 19.9947 19.9903 19.9862 19.9824 19.979 19.9762 19.9739 19.9723 19.9714 19.9712 19.9717 19.9729 19.9747 19.9772 19.9802 19.9837 19.9877 19.9919 19.9963 20.0009 20.0057 20.0115 20.0207 20.042 20.098 20.2358 20.5203 20.9823 
20.9409 20.4765 20.2029 20.0754 20.0269 20.0115 20.0077 20.0073 20.0076 20.008 20.0082 20.0082 20.008 20.0077 20.0071 20.0064 20.0055 20.0045 20.0033 20.0021 20.0009 19.9996 19.9983 19.9971 19.9959 19.9948 19.9939 19.9931 19.9925 19.9921 19.9918 19.9918 19.992 19.9923 19.9929 19.9936 19.9945 19.9955 19.9967 19.9979 19.9992 20.0005 20.0021 20.0045 20.0104 20.0277 20.0778 20.206 20.4789 20.9409 
20.9823 20.51 20.2195 20.0805 20.0263 20.0085 20.0034 20.0022 20.002 20.0021 20.0021 20.0021 20.0021 20.002 20.0018 20.0016 20.0014 20.0011 20.0008 20.0005 20.0002 19.9999 19.9995 19.9992 19.9989 19.9986 19.9984 19.9982 19.9981 19.9979 19.9979 19.9979 19.9979 19.998 19.9982 19.9984 19.9986 19.9989 19.9992 19.9995 19.9998 20.0002 20.0008 20.0022 20.0066 20.021 20.0648 20.1796 20.4309 20.8763 
20.9995 20.5313 20.2317 20.0852 20.0273 20.008 20.0023 20.0009 20.0006 20.0005 20.0005 20.0005 20.0005 20.0005 20.0004 20.0004 20.0003 20.0003 20.0002 20.0001 20 20 19.9999 19.9998 19.9997 19.9997 19.9996 19.9996 19.9995 19.9995 19.9995 19.9995 19.9995 19.9995 19.9996 19.9996 19.9997 19.9997 19.9998 19.9999 20 20.0001 20.0004 20.0013 20.0047 20.0165 20.0531 20.1514 20.374 20.7902 
20.9921 20.5396 20.2384 20.0883 20.0283 20.0081 20.0021 20.0006 20.0002 20.0001 20.0001 20.0001 20.0001 20.0001 20.0001 20.0001 20.0001 20.0001 20 20 20 20 20 20 19.9999 19.9999 19.9999 19.9999 19.9999 19.9999 19.9999 19.9999 19.9999 19.9999 19.9999 19.9999 19.9999 19.9999 20 20 20 20.0001 20.0002 20.0009 20.0034 20.0124 20.0409 20.1202 20.3084 20.6845 
20.9603 20.5347 20.2393 20.0893 20.0288 20.0082 20.0021 20.0005 20.0001 20 20 20 20 20 20 20 20 20 20 20 20 20 20 20 20 20 20 20 20 20 20 20 20 20 20 20 20 20 20 20 20 20 20.0001 20.0005 20.0021 20.0081 20.0279 20.0862 20.2353 20.5621 
20.9048 20.5166 20.2343 20.0882 20.0285 20.0082 20.0021 20.0005 20.0001 20 20 20 20 20 20 20 20 20 20 20 20 20 20 20 20 20 20 20 20 20 20 20 20 20 20 20 20 20 20 20 20 20 20 20.0002 20.0009 20.0037 20.0143 20.0502 20.1564 20.4258 
20.8271 20.4857 20.2236 20.0848 20.0276 20.0079 20.002 20.0005 20.0001 20 20 20 20 20 20 20 20 20 20 20 20 20 20 20 20 20 20 20 20 20 20 20 20 20 20 20 20 20 20 20 20 20 20 19.9999 19.9996 19.9992 20.0003 20.0129 20.0736 20.279 
20.729 20.443 20.2073 20.0794 20.026 20.0075 20.0019 20.0005 20.0001 20 20 20 20 20 20 20 20 20 20 20 20 20 20 20 20 20 20 20 20 20 20 20 20 20 20 20 20 20 20 20 20 20 19.9999 19.9995 19.9983 19.9947 19.9863 19.9753 19.9891 20.1253 
20.6129 20.3893 20.186 20.0721 20.0238 20.0069 20.0018 20.0004 20.0001 20 20 20 20 20 20 20 20 20 20 20 20 20 20 20 20 20 20 20 20 20 20 20 20 20 20 20 20 20 20 20 20 20 19.9998 19.9992 19.9971 19.9903 19.9727 19.9383 19.9048 19.9686 
20.4818 20.326 20.1601 20.0629 20.0209 20.0061 20.0016 20.0004 20.0001 20 20 20 20 20 20 20 20 20 20 20 20 20 20 20 20 20 20 20 20 20 20 20 20 20 20 20 20 20 20 20 20 19.9999 19.9997 19.9989 19.9959 19.9862 19.9597 19.9029 19.8229 19.8126 
20.3387 20.2547 20.1302 20.0522 20.0176 20.0052 20.0014 20.0003 20.0001 20 20 20 20 20 20 20 20 20 20 20 20 20 20 20 20 20 20 20 20 20 20 20 20 20 20 20 20 20 20 20 20 19.9999 19.9997 19.9986 19.9948 19.9824 19.9478 19.8698 19.7453 19.6613 
20.1874 20.1771 20.0971 20.0403 20.0138 20.0041 20.0011 20.0003 20.0001 20 20 20 20 20 20 20 20 20 20 20 20 20 20 20 20 20 20 20 20 20 20 20 20 20 20 20 20 20 20 20 20 19.9999 19.9996 19.9984 19.9939 19.9791 19.9371 19.8399 19.674 19.5182 
20.0314 20.0952 20.0617 20.0273 20.0097 20.0029 20.0008 20.0002 20 20 20 20 20 20 20 20 20 20 20 20 20 20 20 20 20 20 20 20 20 20 20 20 20 20 20 20 20 20 20 20 20 19.9999 19.9996 19.9982 19.9931 19.9762 19.9279 19.814 19.6107 19.3871 
19.8747 20.0109 20.0247 20.0137 20.0053 20.0017 20.0005 20.0001 20 20 20 20 20 20 20 20 20 20 20 20 20 20 20 20 20 20 20 20 20 20 20 20 20 20 20 20 20 20 20 20 20 19.9999 19.9995 19.9981 19.9925 19.974 19.9206 19.7927 19.557 19.271 
19.721 19.9264 19.9871 19.9997 20.0008 20.0004 20.0001 20 20 20 20 20 20 20 20 20 20 20 20 20 20 20 20 20 20 20 20 20 20 20 20 20 20 20 20 20 20 20 20 20 20 19.9999 19.9995 19.998 19.9921 19.9724 19.9152 19.7764 19.5143 19.1729 
19.5742 19.8436 19.9498 19.9857 19.9963 19.9991 19.9998 20 20 20 20 20 20 20 20 20 20 20 20 20 20 20 20 20 20 20 20 20 20 20 20 20 20 20 20 20 20 20 20 20 20 19.9999 19.9995 19.9979 19.9918 19.9715 19.9118 19.7657 19.4834 19.0952 
19.4379 19.7647 19.9138 19.9721 19.9919 19.9979 19.9995 19.9999 20 20 20 20 20 20 20 20 20 20 20 20 20 20 20 20 20 20 20 20 20 20 20 20 20 20 20 20 20 20 20 20 20 19.9999 19.9995 19.9979 19.9918 19.9713 19.9107 19.7607 19.4653 19.0397 
19.3155 19.6917 19.8799 19.9592 19.9877 19.9967 19.9992 19.9998 20 20 20 20 20 20 20 20 20 20 20 20 20 20 20 20 20 20 20 20 20 20 20 20 20 20 20 20 20 20 20 20 20 19.9999 19.9995 19.9979 19.992 19.9717 19.9117 19.7617 19.4604 19.0079 
19.2098 19.6262 19.8489 19.9473 19.9838 19.9955 19.9989 19.9997 19.9999 20 20 20 20 20 20 20 20 20 20 20 20 20 20 20 20 20 20 20 20 20 20 20 20 20 20 20 20 20 20 20 20 19.9999 19.9995 19.998 19.9923 19.9729 19.915 19.7685 19.4687 19.0005 
19.1237 19.5699 19.8217 19.9366 19.9803 19.9945 19.9986 19.9997 19.9999 20 20 20 20 20 20 20 20 20 20 20 20 20 20 20 20 20 20 20 20 20 20 20 20 20 20 20 20 20 20 20 20 19.9999 19.9996 19.9982 19.9929 19.9748 19.9203 19.781 19.4902 19.0177 
19.0591 19.5242 19.7989 19.9276 19.9772 19.9936 19.9984 19.9996 19.9999 20 20 20 20 20 20 20 20 20 20 20 20 20 20 20 20 20 20 20 20 20 20 20 20 20 20 20 20 20 20 20 20 19.9999 19.9996 19.9984 19.9936 19.9772 19.9276 19.7989 19.5242 19.0591 
19.0177 19.4902 19.781 19.9203 19.9748 19.9929 19.9982 19.9996 19.9999 20 20 20 20 20 20 20 20 20 20 20 20 20 20 20 20 20 20 20 20 20 20 20 20 20 20 20 20 20 20 20 20 19.9999 19.9997 19.9986 19.9945 19.9803 19.9366 19.8217 19.5699 19.1237 
19.0005 19.4687 19.7685 19.915 19.9729 19.9923 19.998 19.9995 19.9999 20 20 20 20 20 20 20 20 20 20 20 20 20 20 20 20 20 20 20 20 20 20 20 20 20 20 20 20 20 20 20 20 19.9999 19.9997 19.9989 19.9955 19.9838 19.9473 19.8489 19.6262 19.2098 
19.0079 19.4604 19.7617 19.9117 19.9717 19.992 19.9979 19.9995 19.9999 20 20 20 20 20 20 20 20 20 20 20 20 20 20 20 20 20 20 20 20 20 20 20 20 20 20 20 20 20 20 20 20 20 19.9998 19.9992 19.9967 19.9877 19.9592 19.8799 19.6917 19.3155 
19.0397 19.4653 19.7607 19.9107 19.9713 19.9918 19.9979 19.9995 19.9999 20 20 20 20 20 20 20 20 20 20 20 20 20 20 20 20 20 20 20 20 20 20 20 20 20 20 20 20 20 20 20 20 20 19.9999 19.9995 19.9979 19.9919 19.9721 19.9138 19.7647 19.4379 
19.0952 19.4834 19.7657 19.9118 19.9715 19.9918 19.9979 19.9995 19.9999 20 20 20 20 20 20 20 20 20 20 20 20 20 20 20 20 20 20 20 20 20 20 20 20 20 20 20 20 20 20 20 20 20 20 19.9998 19.9991 19.9963 19.9857 19.9498 19.8436 19.5742 
19.1729 19.5143 19.7764 19.9152 19.9724 19.9921 19.998 19.9995 19.9999 20 20 20 20 20 20 20 20 20 20 20 20 20 20 20 20 20 20 20 20 20 20 20 20 20 20 20 20 20 20 20 20 20 20 20.0001 20.0004 20.0008 19.9997 19.9871 19.9264 19.721 
19.271 19.557 19.7927 19.9206 19.974 19.9925 19.9981 19.9995 19.9999 20 20 20 20 20 20 20 20 20 20 20 20 20 20 20 20 20 20 20 20 20 20 20 20 20 20 20 20 20 20 20 20 20 20.0001 20.0005 20.0017 20.0053 20.0137 20.0247 20.0109 19.8747 
19.3871 19.6107 19.814 19.9279 19.9762 19.9931 19.9982 19.9996 19.9999 20 20 20 20 20 20 20 20 20 20 20 20 20 20 20 20 20 20 20 20 20 20 20 20 20 20 20 20 20 20 20 20 20 20.0002 20.0008 20.0029 20.0097 20.0273 20.0617 20.0952 20.0314 
19.5182 19.674 19.8399 19.9371 19.9791 19.9939 19.9984 19.9996 19.9999 20 20 20 20 20 20 20 20 20 20 20 20 20 20 20 20 20 20 20 20 20 20 20 20 20 20 20 20 20 20 20 20 20.0001 20.0003 20.0011 20.0041 20.0138 20.0403 20.0971 20.1771 20.1874 
19.6613 19.7453 19.8698 19.9478 19.9824 19.9948 19.9986 19.9997 19.9999 20 20 20 20 20 20 20 20 20 20 20 20 20 20 20 20 20 20 20 20 20 20 20 20 20 20 20 20 20 20 20 20 20.0001 20.0003 20.0014 20.0052 20.0176 20.0522 20.1302 20.2547 20.3387 
19.8126 19.8229 19.9029 19.9597 19.9862 19.9959 19.9989 19.9997 19.9999 20 20 20 20 20 20 20 20 20 20 20 20 20 20 20 20 20 20 20 20 20 20 20 20 20 20 20 20 20 20 20 20 20.0001 20.0004 20.0016 20.0061 20.0209 20.0629 20.1601 20.326 20.4818 
19.9686 19.9048 19.9383 19.9727 19.9903 19.9971 19.9992 19.9998 20 20 20 20 20 20 20 20 20 20 20 20 20 20 20 20 20 20 20 20 20 20 20 20 20 20 20 20 20 20 20 20 20 20.0001 20.0004 20.0018 20.0069 20.0238 20.0721 20.186 20.3893 20.6129 
20.1253 19.9891 19.9753 19.9863 19.9947 19.9983 19.9995 19.9999 20 20 20 20 20 20 20 20 20 20 20 20 20 20 20 20 20 20 20 20 20 20 20 20 20 20 20 20 20 20 20 20 20 20.0001 20.0005 20.0019 20.0075 20.026 20.0794 20.2073 20.443 20.729 
20.279 20.0736 20.0129 20.0003 19.9992 19.9996 19.9999 20 20 20 20 20 20 20 20 20 20 20 20 20 20 20 20 20 20 20 20 20 20 20 20 20 20 20 20 20 20 20 20 20 20 20.0001 20.0005 20.0021 20.0079 20.0276 20.0848 20.2236 20.4857 20.8271 
20.4258 20.1564 20.0502 20.0143 20.0037 20.0009 20.0002 20 20 20 20 20 20 20 20 20 20 20 20 20 20 20 20 20 20 20 20 20 20 20 20 20 20 20 20 20 20 20 20 20 20 20.0001 20.0005 20.0021 20.0082 20.0285 20.0882 20.2343 20.5166 20.9048 
20.5621 20.2353 20.0863 20.028 20.0082 20.0022 20.0006 20.0002 20.0001 20 20 20 20 19.9999 19.9999 19.9999 19.9999 19.9999 19.9999 19.9999 19.9999 19.9999 19.9999 19.9999 19.9999 19.9999 19.9999 20 20 20 20 20 20 20.0001 20.0001 20.0001 20.0001 20.0001 20.0001 20.0001 20.0001 20.0002 20.0006 20.0022 20.0083 20.0288 20.0894 20.2393 20.5347 20.9603 
20.6845 20.3086 20.1204 20.0412 20.0127 20.0037 20.0011 20.0004 20.0002 20 20 19.9999 19.9998 19.9997 19.9997 19.9996 19.9996 19.9995 19.9995 19.9995 19.9995 19.9995 19.9995 19.9996 19.9996 19.9997 19.9997 19.9998 19.9999 20 20 20.0001 20.0002 20.0003 20.0003 20.0004 20.0004 20.0005 20.0005 20.0005 20.0005 20.0006 20.0009 20.0025 20.0084 20.0286 20.0885 20.2385 20.5397 20.9921 
20.7902 20.3747 20.1525 20.0543 20.0178 20.0058 20.0022 20.001 20.0005 20.0002 19.9998 19.9995 19.9992 19.9989 19.9986 19.9984 19.9982 19.998 19.9979 19.9979 19.9979 19.9979 19.9981 19.9982 19.9984 19.9986 19.9989 19.9992 19.9995 19.9999 20.0002 20.0005 20.0008 20.0011 20.0014 20.0016 20.0018 20.002 20.0021 20.0021 20.0021 20.0022 20.0024 20.0038 20.0093 20.0284 20.0861 20.2323 20.5316 20.9995 
20.8763 20.4335 20.1838 20.0695 20.0256 20.0106 20.0055 20.0033 20.0018 20.0004 19.9991 19.9979 19.9967 19.9955 19.9945 19.9936 19.9929 19.9923 19.992 19.9918 19.9918 19.9921 19.9925 19.9931 19.9939 19.9948 19.9959 19.9971 19.9983 19.9996 20.0009 20.0021 20.0033 20.0045 20.0055 20.0064 20.0071 20.0077 20.008 20.0082 20.0082 20.008 20.0079 20.0087 20.0132 20.0304 20.0837 20.2217 20.5111 20.9823 
20.9409 20.4875 20.22 20.0936 20.0429 20.0237 20.0154 20.0101 20.0054 20.0009 19.9963 19.9919 19.9877 19.9837 19.9802 19.9772 19.9747 19.9729 19.9717 19.9712 19.9714 19.9723 19.9739 19.9762 19.979 19.9824 19.9862 19.9903 19.9947 19.9992 20.0037 20.0081 20.0123 20.0163 20.0198 20.0228 20.0253 20.0271 20.0283 20.0288 20.0286 20.0278 20.0264 20.0254 20.0273 20.0402 20.0859 20.2099 20.4797 20.9409 
20.9823 20.5454 20.2764 20.1436 20.0856 20.0587 20.042 20.0278 20.0138 19.9997 19.9857 19.972 19.9591 19.9471 19.9365 19.9274 19.9201 19.9148 19.9115 19.9105 19.9116 19.9149 19.9204 19.9277 19.9369 19.9476 19.9596 19.9726 19.9863 20.0003 20.0143 20.028 20.0409 20.0529 20.0635 20.0726 20.0799 20.0852 20.0885 20.0895 20.0884 20.0851 20.0799 20.0736 20.0684 20.0716 20.1024 20.2025 20.4391 20.8763 
20.9995 20.6232 20.38 20.2492 20.1804 20.1361 20.0988 20.0622 20.0248 19.9871 19.9497 19.9136 19.8796 19.8486 19.8213 19.7984 19.7804 19.7679 19.7611 19.7601 19.7651 19.7759 19.7921 19.8135 19.8395 19.8695 19.9026 19.9382 19.9752 20.0129 20.0503 20.0864 20.1204 20.1514 20.1787 20.2016 20.2196 20.2321 20.2389 20.2399 20.2349 20.2242 20.2081 20.1875 20.1645 20.1453 20.1459 20.2028 20.3836 20.7902 
20.9921 20.7317 20.5497 20.4289 20.3391 20.2588 20.1784 20.0956 20.011 19.9262 19.8432 19.7642 19.6909 19.6252 19.5688 19.523 19.4889 19.4674 19.4591 19.464 19.4822 19.5131 19.5559 19.6098 19.6732 19.7447 19.8224 19.9046 19.9891 20.0738 20.1568 20.2358 20.3091 20.3748 20.4312 20.477 20.5111 20.5326 20.5409 20.536 20.5178 20.487 20.4442 20.3908 20.3291 20.2639 20.2067 20.1851 20.2649 20.6845 
20.9603 20.8271 20.729 20.6129 20.4818 20.3387 20.1874 20.0314 19.8747 19.721 19.5742 19.4379 19.3155 19.2098 19.1237 19.0591 19.0177 19.0005 19.0079 19.0397 19.0952 19.1729 19.271 19.3871 19.5182 19.6613 19.8126 19.9686 20.1253 20.279 20.4258 20.5621 20.6845 20.7902 20.8763 20.9409 20.9823 20.9995 20.9921 20.9603 20.9048 20.8271 20.729 20.6129 20.4818 20.3387 20.1874 20.0314 19.8747 20.5621 
