# vtk DataFile Version 3.0
Temperature distribution on a 2D grid
ASCII

DATASET STRUCTURED_POINTS
DIMENSIONS 50 50 1
ORIGIN 0.0 0.0 0.0
SPACING 0.01 0.01 1.0

POINT_DATA 2500
SCALARS temperature double
LOOKUP_TABLE default
20 19.8436 19.691 19.546 19.4122 19.2929 19.191 19.109 19.0489 19.0123 19 19.0123 19.0489 19.109 19.191 19.2929 19.4122 19.546 19.691 19.8436 20 20.1564 20.309 20.454 20.5878 20.7071 20.809 20.891 20.9511 20.9877 21 20.9877 20.9511 20.891 20.809 20.7071 20.5878 20.454 20.309 20.1564 20 19.8436 19.691 19.546 19.4122 19.2929 19.191 19.109 19.0489 19 
19.8436 19.8049 19.7085 19.6069 19.5172 19.4454 19.394 19.3633 19.3529 19.3618 19.3887 19.4322 19.4905 19.5618 19.6441 19.7353 19.8329 19.9346 20.0379 20.1402 20.2391 20.332 20.4168 20.4913 20.5537 20.6025 20.6364 20.6547 20.6569 20.6429 20.613 20.5681 20.5091 20.4376 20.3553 20.2643 20.1668 20.0653 19.9624 19.861 19.7637 19.6732 19.5916 19.52 19.4578 19.402 19.345 19.2745 19.1722 19.0123 
19.691 19.8076 19.8001 19.7506 19.6959 19.6519 19.6248 19.616 19.6243 19.6479 19.6844 19.7314 19.7866 19.8479 19.9134 19.9812 20.0494 20.1163 20.1802 20.2397 20.2932 20.3395 20.3774 20.406 20.4246 20.4328 20.4303 20.4172 20.3939 20.3609 20.319 20.2692 20.2127 20.151 20.0856 20.018 19.95 19.8835 19.8204 19.7626 19.7122 19.6708 19.6392 19.6169 19.6003 19.5811 19.5441 19.4654 19.3127 19.0489 
19.546 19.794 19.878 19.884 19.8614 19.8357 19.8191 19.8158 19.8259 19.8478 19.8788 19.9165 19.9585 20.0027 20.0474 20.0912 20.1327 20.1708 20.2046 20.2333 20.2562 20.2727 20.2825 20.2853 20.2812 20.2701 20.2523 20.2284 20.1989 20.1645 20.126 20.0844 20.0407 19.9959 19.9511 19.9076 19.8663 19.8287 19.796 19.7698 19.7513 19.7419 19.7418 19.7494 19.7595 19.7606 19.7323 19.643 19.4506 19.109 
19.4122 19.7557 19.9167 19.9737 19.98 19.9683 19.9561 19.9511 19.9557 19.9692 19.9894 20.0141 20.0411 20.0686 20.0952 20.1196 20.1411 20.1591 20.1729 20.1825 20.1874 20.1877 20.1833 20.1744 20.1613 20.1441 20.1235 20.0998 20.0737 20.0458 20.0167 19.9872 19.958 19.9297 19.9031 19.8788 19.8575 19.8401 19.8275 19.8209 19.8215 19.8303 19.8478 19.872 19.8971 19.9102 19.8883 19.7948 19.5808 19.191 
19.2929 19.6982 19.9173 20.0164 20.0482 20.0484 20.0387 20.0304 20.0278 20.0318 20.041 20.0538 20.0682 20.0825 20.0957 20.1069 20.1155 20.1211 20.1236 20.1229 20.1191 20.1124 20.1028 20.0907 20.0764 20.0602 20.0425 20.0239 20.0046 19.9853 19.9663 19.9481 19.9312 19.9158 19.9023 19.8912 19.8828 19.8776 19.8763 19.8801 19.8902 19.9078 19.9335 19.966 19.9998 20.022 20.0085 19.9203 19.7033 19.2929 
19.191 19.6301 19.8894 20.0217 20.0751 20.0863 20.0795 20.0686 20.0601 20.0563 20.0568 20.0605 20.0657 20.0711 20.0758 20.079 20.0804 20.0796 20.0768 20.072 20.0653 20.0569 20.0471 20.0361 20.0242 20.0118 19.9991 19.9865 19.9742 19.9625 19.9518 19.9422 19.934 19.9273 19.9222 19.9189 19.9175 19.9184 19.9223 19.9302 19.9435 19.9639 19.9925 20.0287 20.0683 20.0991 20.0975 20.0237 19.8197 19.4122 
19.109 19.5596 19.8443 20.0015 20.0733 20.0952 20.0924 20.0808 20.0687 20.0596 20.0541 20.0517 20.0511 20.0513 20.0512 20.0504 20.0484 20.0452 20.0408 20.0353 20.0287 20.0214 20.0136 20.0054 19.9971 19.9888 19.9809 19.9735 19.9667 19.9608 19.9559 19.952 19.9492 19.9475 19.9469 19.9474 19.949 19.9521 19.9573 19.9656 19.9786 19.9984 20.0269 20.0646 20.1085 20.1484 20.1619 20.1098 19.9314 19.546 
19.0489 19.4933 19.7912 19.9666 20.054 20.0864 20.089 20.0786 20.0652 20.0532 20.0443 20.0383 20.0345 20.0319 20.0297 20.0274 20.0245 20.021 20.0169 20.0123 20.0073 20.002 19.9967 19.9914 19.9863 19.9816 19.9774 19.9737 19.9708 19.9686 19.9671 19.9665 19.9666 19.9673 19.9686 19.9704 19.9726 19.9756 19.98 19.9867 19.9977 20.0154 20.0424 20.0804 20.1281 20.1773 20.2081 20.1826 20.0392 19.691 
19.0123 19.436 19.7372 19.925 20.0256 20.0682 20.0772 20.0699 20.0569 20.0441 20.0336 20.026 20.0207 20.017 20.0141 20.0115 20.009 20.0062 20.0032 20 19.9968 19.9935 19.9904 19.9875 19.9849 19.9827 19.9809 19.9797 19.979 19.9788 19.9792 19.98 19.9813 19.9828 19.9845 19.9862 19.9879 19.9898 19.9924 19.9969 20.0052 20.0202 20.045 20.0827 20.1336 20.192 20.241 20.245 20.1429 19.8436 
19 19.391 19.687 19.8821 19.9936 20.046 20.062 20.0589 20.048 20.0357 20.025 20.0168 20.011 20.0071 20.0043 20.0022 20.0003 19.9985 19.9967 19.9949 19.9931 19.9915 19.99 19.9888 19.9878 19.9871 19.9868 19.9868 19.9873 19.988 19.9891 19.9904 19.9918 19.9933 19.9947 19.9957 19.9964 19.9969 19.9976 19.9998 20.0054 20.0175 20.04 20.0767 20.1301 20.197 20.2638 20.2983 20.2415 20 
19.0123 19.3606 19.6438 19.8414 19.9613 20.0227 20.0461 20.048 20.04 20.0291 20.019 20.011 20.0054 20.0016 19.9991 19.9975 19.9964 19.9954 19.9946 19.9939 19.9932 19.9926 19.9922 19.992 19.9919 19.9921 19.9924 19.993 19.9938 19.9948 19.996 19.9972 19.9984 19.9995 20.0002 20.0005 20.0002 19.9994 19.9985 19.9986 20.0017 20.011 20.0308 20.0662 20.121 20.1951 20.2784 20.3432 20.3336 20.1564 
19.0489 19.3459 19.6094 19.8049 19.9306 19.9999 20.0305 20.0378 20.0333 20.0245 20.0155 20.0081 20.0027 19.9992 19.9971 19.9959 19.9953 19.995 19.9949 19.9948 19.9948 19.9949 19.9951 19.9953 19.9957 19.9962 19.9968 19.9975 19.9983 19.9992 20.0001 20.0011 20.0019 20.0025 20.0027 20.0024 20.0013 19.9995 19.9973 19.9956 19.9965 20.003 20.02 20.0533 20.1084 20.188 20.286 20.3794 20.4173 20.309 
19.109 19.3475 19.585 19.7739 19.9025 19.9784 20.0157 20.0284 20.0278 20.0213 20.0137 20.0069 20.002 19.9987 19.9968 19.996 19.9957 19.9958 19.996 19.9963 19.9967 19.9971 19.9975 19.998 19.9985 19.999 19.9996 20.0002 20.0009 20.0015 20.0022 20.0028 20.0033 20.0036 20.0034 20.0026 20.001 19.9985 19.9953 19.9922 19.9911 19.995 20.0089 20.0394 20.0936 20.1767 20.2869 20.4066 20.4909 20.454 
19.191 19.3654 19.5713 19.749 19.8777 19.9584 20.0016 20.0196 20.0228 20.0189 20.0128 20.0069 20.0023 19.9992 19.9975 19.9967 19.9966 19.9969 19.9973 19.9978 19.9983 19.9988 19.9993 19.9998 20.0003 20.0007 20.0012 20.0016 20.0021 20.0025 20.0029 20.0033 20.0035 20.0036 20.0032 20.0022 20.0003 19.9974 19.9935 19.9893 19.9863 19.9877 19.9983 20.0253 20.0772 20.1618 20.2812 20.4241 20.5526 20.5878 
19.2929 19.3991 19.5685 19.7308 19.8564 19.9401 19.9882 20.011 20.0181 20.0168 20.0122 20.0072 20.003 20.0001 19.9984 19.9977 19.9976 19.9979 19.9983 19.9989 19.9994 19.9999 20.0004 20.0008 20.0012 20.0015 20.0018 20.0021 20.0024 20.0026 20.0029 20.0031 20.0032 20.0031 20.0026 20.0016 19.9996 19.9965 19.9921 19.987 19.9825 19.9813 19.9885 20.0114 20.0597 20.1435 20.2692 20.4316 20.6009 20.7071 
19.4122 19.4476 19.5764 19.7195 19.839 19.9237 19.9756 20.0026 20.0132 20.0146 20.0117 20.0075 20.0038 20.001 19.9994 19.9986 19.9984 19.9986 19.999 19.9995 20 20.0005 20.0009 20.0012 20.0015 20.0017 20.0019 20.0021 20.0022 20.0023 20.0025 20.0026 20.0026 20.0025 20.0021 20.0011 19.9992 19.996 19.9914 19.9856 19.9796 19.976 19.9795 19.9978 20.0412 20.1221 20.2509 20.4287 20.6346 20.809 
19.546 19.5099 19.5949 19.7152 19.8258 19.9093 19.9637 19.9943 20.0082 20.0121 20.0109 20.0077 20.0044 20.0018 20.0001 19.9992 19.999 19.9991 19.9994 19.9998 20.0003 20.0006 20.001 20.0012 20.0014 20.0016 20.0017 20.0018 20.0018 20.0019 20.0019 20.002 20.0021 20.002 20.0017 20.0008 19.9991 19.996 19.9913 19.985 19.9777 19.9718 19.9715 19.9846 20.0221 20.0981 20.2267 20.4154 20.6527 20.891 
19.691 19.5842 19.6234 19.718 19.817 19.8972 19.9528 19.9862 20.003 20.0093 20.0097 20.0075 20.0048 20.0024 20.0007 19.9997 19.9993 19.9993 19.9996 19.9999 20.0003 20.0006 20.0008 20.0011 20.0012 20.0013 20.0013 20.0014 20.0014 20.0014 20.0014 20.0015 20.0016 20.0016 20.0014 20.0007 19.9992 19.9964 19.9917 19.985 19.9767 19.9685 19.9645 19.9721 20.0027 20.0719 20.1972 20.3921 20.6548 20.9511 
19.8436 19.6687 19.6612 19.7278 19.8126 19.8877 19.943 19.9783 19.9977 20.0062 20.0082 20.0071 20.0049 20.0027 20.001 20 19.9995 19.9994 19.9996 19.9998 20.0001 20.0004 20.0006 20.0008 20.0009 20.001 20.001 20.001 20.001 20.0009 20.001 20.0011 20.0012 20.0013 20.0012 20.0008 19.9995 19.997 19.9924 19.9855 19.9763 19.9661 19.9585 19.9604 19.9834 20.044 20.1628 20.3591 20.6409 20.9877 
20 19.7614 19.7074 19.7443 19.8128 19.8808 19.9345 19.9709 19.9923 20.0028 20.0064 20.0063 20.0047 20.0028 20.0013 20.0002 19.9997 19.9995 19.9995 19.9997 19.9999 20.0002 20.0004 20.0005 20.0006 20.0006 20.0007 20.0006 20.0006 20.0006 20.0006 20.0007 20.0009 20.0011 20.0012 20.0009 20 19.9977 19.9934 19.9865 19.9766 19.9647 19.9536 19.9498 19.9645 20.0151 20.1244 20.3173 20.6111 21 
20.1564 19.86 19.7607 19.767 19.8176 19.8769 19.9277 19.9642 19.987 19.9992 20.0043 20.0053 20.0044 20.0028 20.0014 20.0003 19.9997 19.9995 19.9994 19.9996 19.9998 20 20.0001 20.0003 20.0004 20.0004 20.0004 20.0004 20.0003 20.0003 20.0003 20.0004 20.0006 20.0009 20.0012 20.0011 20.0005 19.9986 19.9947 19.9878 19.9776 19.9641 19.9498 19.9403 19.9465 19.9858 20.083 20.2677 20.5663 20.9877 
20.309 19.962 19.8199 19.7954 19.8269 19.8759 19.9225 19.9583 19.982 19.9957 20.0021 20.0042 20.0039 20.0027 20.0015 20.0004 19.9998 19.9995 19.9994 19.9995 19.9996 19.9998 20 20.0001 20.0002 20.0002 20.0002 20.0001 20.0001 20.0001 20.0001 20.0002 20.0005 20.0008 20.0011 20.0013 20.001 19.9995 19.996 19.9895 19.979 19.9644 19.9473 19.9324 19.9297 19.9568 20.0395 20.2115 20.5075 20.9511 
20.454 20.0649 19.8835 19.8288 19.8403 19.878 19.9192 19.9534 19.9774 19.9922 19.9998 20.0028 20.0033 20.0025 20.0014 20.0005 19.9998 19.9995 19.9994 19.9994 19.9995 19.9997 19.9998 19.9999 20 20 20 20 20 19.9999 19.9999 20 20.0003 20.0007 20.0011 20.0015 20.0015 20.0004 19.9974 19.9913 19.981 19.9656 19.946 19.926 19.9147 19.9288 19.9951 20.1501 20.4363 20.891 
20.5878 20.1663 19.9499 19.8665 19.8577 19.883 19.9179 19.9496 19.9734 19.9888 19.9975 20.0014 20.0025 20.0022 20.0014 20.0006 19.9999 19.9995 19.9994 19.9994 19.9995 19.9996 19.9997 19.9998 19.9999 20 19.9999 19.9999 19.9999 19.9998 19.9998 19.9999 20.0001 20.0006 20.0011 20.0017 20.0019 20.0013 19.9989 19.9934 19.9833 19.9675 19.946 19.9215 19.9018 19.9026 19.9507 20.085 20.3543 20.809 
20.7071 20.2635 20.0176 19.9074 19.8786 19.8909 19.9185 19.947 19.9699 19.9857 19.9951 19.9999 20.0017 20.0019 20.0013 20.0006 20 19.9996 19.9994 19.9994 19.9995 19.9996 19.9997 19.9998 19.9999 19.9999 19.9999 19.9999 19.9998 19.9997 19.9997 19.9998 20 20.0004 20.0011 20.0018 20.0023 20.0022 20.0004 19.9956 19.9861 19.9703 19.9473 19.9188 19.8912 19.8788 19.9075 20.0177 20.2636 20.7071 
20.809 20.3542 20.0848 19.9505 19.9024 19.9015 19.9211 19.9456 19.9671 19.9829 19.9929 19.9984 20.0008 20.0014 20.0012 20.0006 20.0001 19.9997 19.9995 19.9995 19.9995 19.9996 19.9997 19.9998 19.9999 19.9999 19.9999 19.9999 19.9998 19.9997 19.9997 19.9997 19.9999 20.0003 20.001 20.0019 20.0027 20.003 20.0019 19.9979 19.9892 19.9737 19.9499 19.9182 19.8833 19.8579 19.8666 19.95 20.1663 20.5878 
20.891 20.4362 20.15 19.9949 19.9286 19.9144 19.9256 19.9456 19.9651 19.9804 19.9908 19.9969 19.9999 20.0009 20.001 20.0006 20.0002 19.9998 19.9996 19.9996 19.9996 19.9997 19.9998 19.9999 20 20 20 20 19.9999 19.9998 19.9997 19.9997 19.9999 20.0003 20.0009 20.0019 20.003 20.0037 20.0033 20.0002 19.9925 19.9778 19.9537 19.9195 19.8783 19.8405 19.829 19.8836 20.065 20.454 
20.9511 20.5075 20.2114 20.0393 19.9565 19.9294 19.9319 19.9468 19.9639 19.9785 19.9889 19.9954 19.9989 20.0004 20.0008 20.0006 20.0003 20 19.9998 19.9997 19.9998 19.9999 20 20.0001 20.0001 20.0002 20.0001 20.0001 20 19.9999 19.9998 19.9997 19.9998 20.0002 20.0008 20.0019 20.0031 20.0043 20.0045 20.0025 19.996 19.9824 19.9586 19.9227 19.8762 19.827 19.7955 19.82 19.962 20.309 
20.9877 20.5662 20.2676 20.0828 19.9854 19.9461 19.9399 19.9493 19.9636 19.977 19.9872 19.9941 19.998 19.9999 20.0006 20.0006 20.0004 20.0002 20 20 20 20.0001 20.0002 20.0003 20.0003 20.0004 20.0003 20.0003 20.0001 20 19.9998 19.9997 19.9998 20.0001 20.0007 20.0018 20.0032 20.0047 20.0057 20.0047 19.9995 19.9873 19.9644 19.9279 19.8771 19.8177 19.7671 19.7608 19.86 20.1564 
21 20.611 20.3172 20.1242 20.0147 19.9641 19.9493 19.9531 19.9641 19.9761 19.9859 19.9928 19.9971 19.9994 20.0004 20.0007 20.0006 20.0004 20.0003 20.0003 20.0003 20.0004 20.0005 20.0006 20.0006 20.0006 20.0006 20.0005 20.0003 20.0001 19.9999 19.9998 19.9997 19.9999 20.0005 20.0016 20.0031 20.005 20.0066 20.0066 20.003 19.9925 19.9711 19.9347 19.881 19.8129 19.7443 19.7074 19.7615 20 
20.9877 20.6408 20.3589 20.1625 20.0437 19.983 19.96 19.958 19.9656 19.9758 19.985 19.9919 19.9964 19.999 20.0003 20.0008 20.0009 20.0008 20.0007 20.0007 20.0007 20.0008 20.0008 20.0009 20.0009 20.0009 20.0008 20.0007 20.0005 20.0003 20 19.9997 19.9996 19.9997 20.0002 20.0012 20.0029 20.005 20.0072 20.0084 20.0063 19.9978 19.9784 19.9431 19.8878 19.8127 19.7279 19.6613 19.6687 19.8436 
20.9511 20.6548 20.3919 20.1969 20.0716 20.0024 19.9717 19.9641 19.968 19.9762 19.9845 19.9912 19.9959 19.9988 20.0003 20.001 20.0013 20.0013 20.0013 20.0012 20.0012 20.0012 20.0013 20.0013 20.0012 20.0012 20.001 20.0008 20.0006 20.0003 19.9999 19.9996 19.9994 19.9993 19.9997 20.0007 20.0024 20.0048 20.0076 20.0097 20.0093 20.0031 19.9862 19.9529 19.8973 19.817 19.7181 19.6235 19.5842 19.691 
20.891 20.6527 20.4154 20.2266 20.098 20.022 19.9844 19.9713 19.9715 19.9775 19.9847 19.9911 19.9958 19.9988 20.0006 20.0015 20.0018 20.0019 20.0019 20.0018 20.0017 20.0017 20.0016 20.0015 20.0014 20.0013 20.0011 20.0008 20.0004 20 19.9996 19.9992 19.9989 19.9987 19.999 19.9999 20.0016 20.0043 20.0076 20.0108 20.0121 20.0083 19.9944 19.9638 19.9094 19.826 19.7153 19.595 19.5099 19.546 
20.809 20.6346 20.4288 20.251 20.1223 20.0414 19.9979 19.9797 19.9761 19.9798 19.9857 19.9915 19.9961 19.9992 20.0011 20.0021 20.0025 20.0026 20.0025 20.0023 20.0022 20.002 20.0018 20.0016 20.0013 20.001 20.0007 20.0003 19.9999 19.9994 19.9989 19.9985 19.9981 19.9979 19.9981 19.9989 20.0007 20.0035 20.0073 20.0116 20.0146 20.0133 20.0028 19.9758 19.9239 19.8393 19.7197 19.5766 19.4477 19.4122 
20.7071 20.6011 20.4319 20.2697 20.1441 20.0603 20.0121 19.9892 19.982 19.9831 19.9876 19.9927 19.9969 20 20.0018 20.0028 20.0031 20.0031 20.0029 20.0026 20.0022 20.0018 20.0015 20.0011 20.0007 20.0002 19.9998 19.9993 19.9988 19.9983 19.9978 19.9973 19.9969 19.9967 19.9969 19.9978 19.9996 20.0027 20.007 20.0123 20.017 20.0184 20.0115 19.9888 19.9407 19.857 19.7313 19.5688 19.3993 19.2929 
20.5878 20.553 20.4248 20.2822 20.163 20.0786 20.0268 19.9998 19.9891 19.9876 19.9904 19.9945 19.9981 20.0009 20.0025 20.0033 20.0035 20.0032 20.0027 20.0021 20.0015 20.0009 20.0003 19.9997 19.9991 19.9985 19.998 19.9975 19.997 19.9966 19.9962 19.9958 19.9955 19.9955 19.9958 19.9968 19.9988 20.0022 20.0071 20.0132 20.0197 20.0237 20.0207 20.0028 19.9596 19.8787 19.7499 19.5719 19.3657 19.191 
20.454 20.4915 20.4077 20.2885 20.1788 20.0959 20.0418 20.0113 19.9972 19.993 19.9939 19.9966 19.9994 20.0015 20.0027 20.0031 20.0029 20.0022 20.0014 20.0004 19.9995 19.9985 19.9977 19.9969 19.9962 19.9957 19.9952 19.9948 19.9946 19.9944 19.9942 19.9942 19.9943 19.9946 19.9953 19.9966 19.9989 20.0026 20.008 20.0151 20.0231 20.0298 20.0306 20.0179 19.9805 19.9043 19.7753 19.5861 19.3481 19.109 
20.309 20.4181 20.381 20.2883 20.1908 20.1115 20.0564 20.0231 20.0058 19.9988 19.9974 19.9984 19.9999 20.0011 20.0015 20.0012 20.0004 19.9993 19.998 19.9966 19.9953 19.9942 19.9932 19.9925 19.9919 19.9916 19.9914 19.9915 19.9917 19.9921 19.9926 19.9932 19.994 19.9949 19.9962 19.998 20.0008 20.0049 20.0108 20.0187 20.0281 20.0371 20.0416 20.0342 20.0033 19.9334 19.8071 19.6109 19.3467 19.0489 
20.1564 20.3345 20.345 20.2811 20.1983 20.1244 20.0696 20.0339 20.0135 20.0035 19.9995 19.9984 19.9983 19.9981 19.9975 19.9964 19.9949 19.9932 19.9915 19.9899 19.9885 19.9874 19.9867 19.9863 19.9863 19.9866 19.9873 19.9883 19.9895 19.991 19.9926 19.9942 19.996 19.9979 20 20.0025 20.0057 20.0102 20.0165 20.0249 20.0353 20.0461 20.0539 20.0514 20.0273 19.965 19.8441 19.6455 19.3614 19.0123 
20 20.2423 20.2998 20.2659 20.1995 20.1326 20.079 20.0416 20.0182 20.005 19.998 19.9945 19.9924 19.9906 19.9888 19.9868 19.9847 19.9827 19.981 19.9796 19.9787 19.9783 19.9785 19.9792 19.9805 19.9822 19.9845 19.987 19.9899 19.993 19.9962 19.9994 20.0025 20.0055 20.0085 20.0117 20.0153 20.0198 20.026 20.0343 20.0449 20.0567 20.0668 20.0688 20.0513 19.9974 19.8846 19.6883 19.3916 19 
19.8436 20.1428 20.2447 20.2407 20.1916 20.1327 20.0811 20.0424 20.0162 19.9997 19.9896 19.9835 19.9793 19.9761 19.9733 19.9709 19.9688 19.9672 19.9663 19.9661 19.9667 19.9681 19.9703 19.9733 19.9769 19.9812 19.9859 19.991 19.9962 20.0015 20.0067 20.0117 20.0162 20.0203 20.024 20.0273 20.0307 20.0345 20.0397 20.0467 20.0562 20.0677 20.0787 20.0838 20.0725 20.0276 19.9252 19.7365 19.4353 19.0123 
19.691 20.0369 20.1782 20.2021 20.17 20.1195 20.0706 20.031 20.0024 19.9829 19.9701 19.9617 19.9561 19.9522 19.9495 19.9478 19.9471 19.9475 19.949 19.9516 19.9555 19.9604 19.9663 19.9731 19.9805 19.9885 19.9967 20.005 20.0132 20.021 20.0282 20.0347 20.0401 20.0445 20.0478 20.0502 20.0519 20.0536 20.0559 20.06 20.0664 20.0754 20.0854 20.0919 20.0856 20.05 19.9607 19.7854 19.4897 19.0489 
19.546 19.9246 20.0971 20.1447 20.128 20.0858 20.04 20.0006 19.9705 19.9493 19.9351 19.9261 19.9208 19.9182 19.9178 19.9192 19.9224 19.9273 19.9338 19.942 19.9515 19.9621 19.9738 19.9861 19.9988 20.0115 20.0239 20.0358 20.0467 20.0565 20.0648 20.0714 20.0761 20.0789 20.0797 20.0787 20.0763 20.0732 20.0701 20.0684 20.069 20.0729 20.0793 20.085 20.0822 20.0562 19.9829 19.828 19.5499 19.109 
19.4122 19.805 19.9966 20.0613 20.057 20.0226 19.9811 19.9438 19.9149 19.8948 19.8824 19.8761 19.8747 19.8772 19.8829 19.8914 19.9025 19.9158 19.931 19.9479 19.966 19.985 20.0043 20.0235 20.0422 20.0599 20.0761 20.0904 20.1025 20.112 20.1187 20.1224 20.123 20.1204 20.1149 20.1066 20.0961 20.0843 20.0721 20.0611 20.0528 20.0484 20.0483 20.0509 20.0502 20.034 19.9801 19.8543 19.6095 19.191 
19.2929 19.6757 19.8703 19.943 19.9476 19.9213 19.8868 19.8558 19.833 19.8195 19.8147 19.8172 19.8259 19.8396 19.8575 19.8789 19.9032 19.9297 19.9579 19.987 20.0165 20.0455 20.0734 20.0995 20.1232 20.1439 20.161 20.1742 20.1831 20.1874 20.187 20.182 20.1724 20.1585 20.1406 20.1193 20.0954 20.07 20.0445 20.0206 20 19.9848 19.9763 19.974 19.9746 19.9689 19.9387 19.852 19.6596 19.2929 
19.191 19.5336 19.7112 19.7818 19.7927 19.7772 19.7556 19.7387 19.731 19.7336 19.7459 19.7668 19.7946 19.8282 19.8663 19.9076 19.9512 19.9959 20.0406 20.0842 20.1258 20.1643 20.1987 20.2282 20.2522 20.2699 20.281 20.2852 20.2823 20.2725 20.2559 20.233 20.2042 20.1703 20.1322 20.0909 20.0476 20.0038 19.9612 19.9218 19.8878 19.8613 19.8445 19.8382 19.8413 19.8482 19.8459 19.8089 19.6905 19.4122 
19.109 19.3755 19.5149 19.5752 19.5941 19.5972 19.6 19.6106 19.6322 19.6652 19.7085 19.7605 19.8193 19.8831 19.9499 20.018 20.0856 20.151 20.2127 20.2691 20.3188 20.3607 20.3938 20.4171 20.4302 20.4327 20.4245 20.4059 20.3773 20.3393 20.293 20.2395 20.18 20.1159 20.049 19.981 19.9135 19.8487 19.7885 19.7352 19.6909 19.6581 19.6387 19.6344 19.6454 19.6696 19.6998 19.72 19.6945 19.546 
19.0489 19.2 19.2854 19.336 19.3736 19.4118 19.4585 19.5171 19.5882 19.6704 19.7618 19.8599 19.9619 20.0651 20.1667 20.2643 20.3554 20.4376 20.5091 20.568 20.613 20.6428 20.6568 20.6547 20.6364 20.6024 20.5537 20.4913 20.4167 20.332 20.239 20.1401 20.0378 19.9345 19.8327 19.7351 19.6442 19.5622 19.4915 19.4342 19.3922 19.3672 19.3608 19.3738 19.4066 19.4586 19.5269 19.6052 19.6769 19.691 
19.0123 19.0123 19.0489 19.109 19.191 19.2929 19.4122 19.546 19.691 19.8436 20 20.1564 20.309 20.454 20.5878 20.7071 20.809 20.891 20.9511 20.9877 21 20.9877 20.9511 20.891 20.809 20.7071 20.5878 20.454 20.309 20.1564 20 19.8436 19.691 19.546 19.4122 19.2929 19.191 19.109 19.0489 19.0123 19 19.0123 19.0489 19.109 19.191 19.2929 19.4122 19.546 19.691 19.8436 
