# vtk DataFile Version 3.0
Temperature distribution on a 2D grid
ASCII

DATASET STRUCTURED_POINTS
DIMENSIONS 50 50 1
ORIGIN 0.0 0.0 0.0
SPACING 0.01 0.01 1.0

POINT_DATA 2500
SCALARS temperature double
LOOKUP_TABLE default
20.9511 19.109 19.191 19.2929 19.4122 19.546 19.691 19.8436 20 20.1564 20.309 20.454 20.5878 20.7071 20.809 20.891 20.9511 20.9877 21 20.9877 20.9511 20.891 20.809 20.7071 20.5878 20.454 20.309 20.1564 20 19.8436 19.691 19.546 19.4122 19.2929 19.191 19.109 19.0489 19.0123 19 19.0123 19.0489 19.109 19.191 19.2929 19.4122 19.546 19.691 19.8436 20 20.309 
20.9877 20.1039 19.8689 19.8232 19.8599 19.9354 20.0289 20.1293 20.2295 20.3249 20.4122 20.4889 20.5531 20.6031 20.638 20.657 20.6597 20.6461 20.6165 20.5718 20.513 20.4417 20.3594 20.2684 20.1707 20.0689 19.9653 19.8627 19.7634 19.67 19.5848 19.5098 19.4469 19.3977 19.3633 19.3446 19.342 19.3554 19.3846 19.4288 19.487 19.5585 19.6424 19.7384 19.8465 19.9669 20.0985 20.2358 20.3628 20.454 
21 20.4871 20.2266 20.1165 20.0931 20.1167 20.1635 20.2192 20.2751 20.326 20.3686 20.4014 20.4233 20.434 20.4333 20.4216 20.3993 20.3671 20.3257 20.2764 20.2203 20.1588 20.0935 20.0259 19.9576 19.8905 19.826 19.7659 19.7116 19.6645 19.6257 19.5961 19.5766 19.5676 19.5693 19.5816 19.604 19.6359 19.6765 19.7247 19.7797 19.8411 19.9093 19.9859 20.0738 20.1763 20.2953 20.4254 20.543 20.5878 
20.9877 20.6344 20.3915 20.2521 20.1883 20.1725 20.1833 20.2062 20.2317 20.2541 20.2703 20.2789 20.2793 20.2718 20.2567 20.2347 20.2066 20.1733 20.1356 20.0947 20.0515 20.007 19.9624 19.9188 19.8773 19.8388 19.8043 19.7747 19.7507 19.733 19.7218 19.7177 19.7206 19.7306 19.7472 19.77 19.7983 19.8311 19.8676 19.9068 19.9482 19.992 20.0398 20.0949 20.1628 20.2503 20.3628 20.4981 20.6334 20.7071 
20.9511 20.6814 20.4562 20.3013 20.2105 20.1664 20.1516 20.1524 20.1591 20.1656 20.1686 20.1665 20.1589 20.1461 20.1287 20.1075 20.0832 20.0567 20.0287 20 19.9714 19.9435 19.9171 19.8928 19.8712 19.8528 19.8381 19.8275 19.8211 19.8193 19.8221 19.8294 19.841 19.8568 19.8761 19.8984 19.9231 19.9491 19.9756 20.0019 20.0277 20.0539 20.0827 20.1191 20.1708 20.2474 20.3586 20.5069 20.6752 20.809 
20.891 20.681 20.4731 20.3109 20.2025 20.139 20.1069 20.0936 20.0896 20.0885 20.0864 20.0816 20.0735 20.0622 20.0484 20.0325 20.0154 19.9977 19.9799 19.9627 19.9464 19.9315 19.9184 19.9073 19.8986 19.8924 19.889 19.8883 19.8905 19.8956 19.9033 19.9136 19.9263 19.941 19.9572 19.9745 19.9921 20.0093 20.0254 20.0396 20.052 20.0636 20.0774 20.0992 20.1383 20.2072 20.3192 20.4825 20.6878 20.891 
20.809 20.6551 20.4685 20.3064 20.188 20.1119 20.0684 20.0465 20.0367 20.0325 20.0297 20.0261 20.0207 20.0136 20.0051 19.9955 19.9856 19.9758 19.9664 19.9578 19.9504 19.9442 19.9394 19.9362 19.9347 19.9348 19.9366 19.94 19.945 19.9516 19.9595 19.9686 19.9787 19.9896 20.0009 20.0122 20.0229 20.0324 20.0399 20.0449 20.0473 20.0483 20.0511 20.062 20.0912 20.1533 20.2653 20.4413 20.6806 20.9511 
20.7071 20.6127 20.4536 20.2988 20.1772 20.0939 20.0431 20.0157 20.0028 19.9977 19.9959 19.9946 19.9929 19.9901 19.9865 19.9825 19.9782 19.9742 19.9707 19.9679 19.9658 19.9647 19.9645 19.9652 19.9668 19.9694 19.9727 19.9769 19.9817 19.9871 19.9931 19.9994 20.0061 20.0129 20.0196 20.0258 20.0312 20.035 20.0366 20.0354 20.0313 20.0252 20.0203 20.0227 20.0434 20.0985 20.208 20.3916 20.6578 20.9877 
20.5878 20.5573 20.4324 20.2916 20.1722 20.0859 20.0308 19.9999 19.985 19.9796 19.9789 19.98 19.9812 19.982 19.9823 19.9821 19.9818 19.9815 19.9815 19.9819 19.9828 19.984 19.9858 19.9879 19.9904 19.9932 19.9962 19.9995 20.0028 20.0063 20.0098 20.0134 20.0169 20.0204 20.0236 20.0263 20.0282 20.0286 20.0268 20.0221 20.0141 20.0036 19.9932 19.9889 20.0017 20.0485 20.152 20.337 20.6214 21 
20.454 20.4905 20.4054 20.2842 20.1718 20.0859 20.0286 19.9951 19.9786 19.9728 19.9728 19.9754 19.9788 19.982 19.9847 19.987 19.989 19.9908 19.9926 19.9945 19.9965 19.9985 20.0007 20.0029 20.005 20.0071 20.0091 20.0109 20.0127 20.0142 20.0157 20.0171 20.0184 20.0196 20.0206 20.0213 20.0213 20.0201 20.0167 20.0104 20.0006 19.9875 19.9732 19.9631 19.9679 20.0049 20.0987 20.2789 20.5721 20.9877 
20.309 20.4136 20.3721 20.2749 20.1733 20.0905 20.0326 19.9974 19.9794 19.9728 19.9728 19.976 19.9805 19.985 19.9891 19.9927 19.9958 19.9986 20.0011 20.0034 20.0055 20.0075 20.0093 20.011 20.0124 20.0135 20.0144 20.015 20.0153 20.0155 20.0155 20.0155 20.0154 20.0154 20.0153 20.0152 20.0145 20.0128 20.0092 20.0026 19.9922 19.9777 19.9604 19.9452 19.9418 19.9675 20.0484 20.2178 20.5108 20.9511 
20.1564 20.3278 20.3318 20.262 20.1743 20.0967 20.0396 20.0033 19.9838 19.976 19.9754 19.9786 19.9834 19.9884 19.9931 19.9972 20.0007 20.0037 20.0063 20.0085 20.0103 20.0119 20.0131 20.0141 20.0147 20.015 20.015 20.0147 20.0142 20.0134 20.0126 20.0118 20.0111 20.0106 20.0102 20.0099 20.0094 20.008 20.0048 19.9988 19.9885 19.9733 19.9538 19.9338 19.9221 19.9355 20.0006 20.1541 20.4384 20.891 
20 20.2345 20.2847 20.2442 20.1727 20.1025 20.0474 20.0105 19.9896 19.9805 19.9788 19.9814 19.986 19.991 19.9957 19.9998 20.0033 20.0062 20.0085 20.0104 20.0118 20.0129 20.0136 20.014 20.014 20.0137 20.0132 20.0123 20.0113 20.0102 20.0091 20.008 20.0071 20.0066 20.0063 20.0063 20.0062 20.0055 20.0033 19.9981 19.9884 19.973 19.9518 19.9274 19.9076 19.9079 19.9551 20.0882 20.356 20.809 
19.8436 20.1357 20.231 20.2211 20.1676 20.1062 20.0544 20.0177 19.9956 19.9849 19.982 19.9837 19.9876 19.9923 19.9968 20.0007 20.004 20.0067 20.0087 20.0102 20.0113 20.0119 20.0122 20.0122 20.0119 20.0113 20.0104 20.0094 20.0082 20.007 20.0058 20.0048 20.004 20.0037 20.0037 20.0042 20.0048 20.0049 20.0036 19.9994 19.9906 19.9755 19.953 19.9248 19.8971 19.8842 19.912 20.021 20.2652 20.7071 
19.691 20.0336 20.1717 20.1926 20.1583 20.1072 20.0597 20.0239 20.001 19.989 19.9847 19.9853 19.9885 19.9926 19.9967 20.0004 20.0034 20.0058 20.0076 20.0088 20.0096 20.01 20.01 20.0098 20.0093 20.0086 20.0077 20.0066 20.0055 20.0043 20.0033 20.0024 20.0019 20.0018 20.0023 20.0032 20.0043 20.0052 20.0049 20.0019 19.9941 19.9795 19.9563 19.9248 19.8899 19.8639 19.8716 19.9536 20.1682 20.5878 
19.546 19.9307 20.108 20.1591 20.1448 20.1052 20.063 20.0288 20.0056 19.9924 19.9869 19.9864 19.9887 19.9922 19.9959 19.9992 20.002 20.0042 20.0058 20.0068 20.0075 20.0077 20.0077 20.0074 20.0068 20.0061 20.0053 20.0043 20.0033 20.0023 20.0015 20.0009 20.0006 20.0008 20.0015 20.0028 20.0044 20.006 20.0066 20.0046 19.998 19.9842 19.9608 19.9269 19.8855 19.8471 19.8344 19.8875 20.067 20.454 
19.4122 19.8293 20.0416 20.1215 20.1274 20.1001 20.0643 20.0325 20.0094 19.9954 19.9888 19.9872 19.9886 19.9914 19.9947 19.9978 20.0004 20.0024 20.0038 20.0048 20.0054 20.0056 20.0055 20.0052 20.0047 20.0041 20.0034 20.0026 20.0018 20.001 20.0003 19.9999 19.9998 20.0001 20.0011 20.0026 20.0046 20.0068 20.0081 20.0072 20.0019 19.9892 19.966 19.9304 19.8837 19.8338 19.8011 19.824 19.9641 20.309 
19.2929 19.7321 19.9739 20.0806 20.1065 20.0921 20.0635 20.0348 20.0125 19.998 19.9904 19.9878 19.9884 19.9907 19.9935 19.9963 19.9987 20.0006 20.002 20.003 20.0035 20.0037 20.0037 20.0035 20.0031 20.0026 20.002 20.0014 20.0007 20.0001 19.9996 19.9993 19.9993 19.9997 20.0008 20.0024 20.0047 20.0072 20.0092 20.0093 20.0053 19.994 19.9717 19.9353 19.8843 19.8243 19.7725 19.7646 19.862 20.1564 
19.191 19.6414 19.9067 20.0375 20.0827 20.0816 20.0608 20.036 20.015 20.0004 19.9921 19.9886 19.9884 19.9901 19.9925 19.995 19.9973 19.9991 20.0005 20.0014 20.002 20.0023 20.0023 20.0022 20.0019 20.0015 20.0011 20.0006 20.0001 19.9996 19.9991 19.9989 19.9989 19.9994 20.0004 20.002 20.0044 20.0072 20.0098 20.0108 20.0082 19.9985 19.9776 19.9414 19.8875 19.8188 19.7492 19.7109 19.7632 20 
19.109 19.5595 19.8417 19.9933 20.0568 20.0689 20.0564 20.0361 20.0169 20.0026 19.9938 19.9896 19.9887 19.9898 19.9918 19.994 19.9962 19.9979 19.9993 20.0002 20.0008 20.0012 20.0013 20.0012 20.0011 20.0008 20.0004 20.0001 19.9996 19.9992 19.9989 19.9986 19.9986 19.999 19.9998 20.0014 20.0037 20.0067 20.0097 20.0117 20.0104 20.0026 19.9837 19.9485 19.893 19.8174 19.7318 19.6641 19.6702 19.8436 
19.0489 19.4884 19.7806 19.9492 20.0293 20.0543 20.0505 20.0352 20.0184 20.0047 19.9957 19.9909 19.9893 19.9898 19.9914 19.9934 19.9953 19.997 19.9984 19.9993 20 20.0004 20.0006 20.0006 20.0005 20.0003 20 19.9997 19.9994 19.999 19.9986 19.9984 19.9983 19.9985 19.9992 20.0005 20.0027 20.0057 20.0091 20.0119 20.0121 20.0063 19.9898 19.9566 19.9009 19.8203 19.7208 19.6254 19.5852 19.691 
19.0123 19.4299 19.7248 19.9063 20.001 20.0384 20.0433 20.0334 20.0193 20.0067 19.9977 19.9925 19.9903 19.9903 19.9914 19.9931 19.9949 19.9964 19.9977 19.9987 19.9994 19.9998 20 20.0001 20.0001 20 19.9998 19.9995 19.9992 19.9988 19.9985 19.9981 19.9979 19.9979 19.9983 19.9994 20.0014 20.0043 20.008 20.0115 20.0131 20.0096 19.9959 19.9655 19.911 19.8275 19.7166 19.5959 19.5104 19.546 
19 19.3854 19.6758 19.8657 19.9726 20.0214 20.035 20.0307 20.0197 20.0085 19.9997 19.9942 19.9916 19.991 19.9918 19.9931 19.9947 19.9961 19.9973 19.9983 19.999 19.9994 19.9997 19.9998 19.9999 19.9998 19.9996 19.9994 19.9991 19.9987 19.9983 19.9979 19.9975 19.9973 19.9974 19.9982 19.9999 20.0027 20.0065 20.0107 20.0137 20.0124 20.0019 19.975 19.9232 19.8387 19.7192 19.5763 19.4476 19.4122 
19.0123 19.356 19.6347 19.8284 19.9449 20.0039 20.0258 20.0272 20.0197 20.0101 20.0019 19.9962 19.9931 19.9921 19.9924 19.9934 19.9947 19.996 19.9971 19.998 19.9987 19.9992 19.9995 19.9997 19.9997 19.9997 19.9996 19.9994 19.999 19.9987 19.9982 19.9976 19.9971 19.9966 19.9965 19.997 19.9983 20.0009 20.0047 20.0094 20.0138 20.0148 20.0078 19.9851 19.9371 19.8538 19.7287 19.567 19.3983 19.2929 
19.0489 19.3425 19.6026 19.7953 19.9186 19.9863 20.016 20.0231 20.0192 20.0114 20.0039 19.9983 19.9949 19.9934 19.9933 19.9939 19.9949 19.996 19.9971 19.9979 19.9986 19.999 19.9994 19.9995 19.9996 19.9996 19.9995 19.9993 19.999 19.9986 19.9981 19.9974 19.9967 19.996 19.9956 19.9957 19.9967 19.9989 20.0027 20.0079 20.0134 20.0168 20.0133 19.9954 19.9526 19.8725 19.7449 19.5684 19.3639 19.191 
19.109 19.3451 19.5803 19.7672 19.8942 19.969 20.0057 20.0184 20.0181 20.0125 20.0059 20.0004 19.9968 19.9949 19.9943 19.9946 19.9953 19.9962 19.9971 19.9979 19.9985 19.9989 19.9993 19.9995 19.9996 19.9996 19.9995 19.9994 19.9991 19.9986 19.998 19.9973 19.9964 19.9955 19.9948 19.9945 19.9951 19.997 20.0006 20.0061 20.0127 20.0183 20.0185 20.0058 19.9691 19.8943 19.7672 19.5804 19.3451 19.109 
19.191 19.3639 19.5683 19.7448 19.8724 19.9525 19.9953 20.0132 20.0166 20.0132 20.0077 20.0025 19.9987 19.9964 19.9954 19.9954 19.9958 19.9965 19.9972 19.9979 19.9985 19.9989 19.9992 19.9995 19.9996 19.9997 19.9996 19.9994 19.9992 19.9987 19.9981 19.9973 19.9963 19.9952 19.9941 19.9935 19.9936 19.9951 19.9985 20.0041 20.0116 20.0193 20.0232 20.0161 19.9864 19.9187 19.7953 19.6027 19.3425 19.0489 
19.2929 19.3983 19.5669 19.7286 19.8537 19.937 19.9849 20.0075 20.0146 20.0135 20.0092 20.0044 20.0006 19.998 19.9966 19.9962 19.9963 19.9968 19.9974 19.9979 19.9985 19.9989 19.9992 19.9995 19.9997 19.9998 19.9997 19.9996 19.9993 19.9989 19.9983 19.9974 19.9963 19.995 19.9937 19.9927 19.9924 19.9934 19.9965 20.0021 20.0103 20.0199 20.0274 20.0259 20.004 19.945 19.8284 19.6348 19.356 19.0123 
19.4122 19.4475 19.5762 19.7191 19.8385 19.923 19.9747 20.0016 20.0121 20.0133 20.0103 20.0061 20.0023 19.9995 19.9978 19.997 19.9969 19.9971 19.9975 19.998 19.9985 19.9989 19.9993 19.9996 19.9998 19.9999 20 19.9999 19.9997 19.9992 19.9986 19.9977 19.9965 19.995 19.9935 19.9922 19.9914 19.992 19.9946 20 20.0087 20.02 20.0309 20.0351 20.0215 19.9727 19.8658 19.6758 19.3854 19 
19.546 19.5103 19.5958 19.7164 19.8272 19.9107 19.965 19.9954 20.0091 20.0126 20.0109 20.0074 20.0037 20.0008 19.9988 19.9978 19.9973 19.9974 19.9977 19.9981 19.9985 19.999 19.9994 19.9997 20 20.0002 20.0003 20.0003 20.0002 19.9998 19.9992 19.9982 19.997 19.9954 19.9937 19.992 19.9908 19.9908 19.9929 19.9981 20.007 20.0196 20.0336 20.0435 20.0385 20.0011 19.9064 19.7249 19.4299 19.0123 
19.691 19.5851 19.6252 19.7205 19.8199 19.9004 19.956 19.9891 20.0056 20.0113 20.0111 20.0082 20.0048 20.0019 19.9997 19.9984 19.9977 19.9976 19.9978 19.9982 19.9986 19.9991 19.9996 20 20.0004 20.0007 20.0009 20.001 20.0009 20.0006 20 19.9991 19.9978 19.9961 19.9941 19.9921 19.9905 19.99 19.9915 19.9962 20.0051 20.0187 20.0354 20.0507 20.0545 20.0293 19.9493 19.7806 19.4884 19.0489 
19.8436 19.67 19.6637 19.7313 19.8168 19.8923 19.9476 19.9827 20.0015 20.0093 20.0105 20.0085 20.0055 20.0026 20.0003 19.9988 19.998 19.9978 19.9979 19.9983 19.9988 19.9994 19.9999 20.0005 20.001 20.0014 20.0017 20.0019 20.0019 20.0017 20.0011 20.0002 19.9989 19.9972 19.995 19.9927 19.9906 19.9895 19.9903 19.9944 20.0031 20.0173 20.0364 20.0566 20.069 20.0568 19.9933 19.8418 19.5595 19.109 
20 19.763 19.7104 19.7485 19.8179 19.8864 19.9402 19.9763 19.997 20.0067 20.0093 20.0082 20.0057 20.0029 20.0007 19.9991 19.9982 19.998 19.9981 19.9985 19.9991 19.9998 20.0006 20.0013 20.0019 20.0025 20.003 20.0032 20.0033 20.0032 20.0027 20.0018 20.0004 19.9986 19.9962 19.9936 19.9911 19.9893 19.9894 19.9927 20.0009 20.0153 20.0362 20.0609 20.0816 20.0827 20.0374 19.9067 19.6414 19.191 
20.1564 19.8617 19.764 19.7715 19.8231 19.8829 19.9337 19.9699 19.9921 20.0034 20.0074 20.0073 20.0053 20.0029 20.0008 19.9993 19.9984 19.9982 19.9984 19.999 19.9998 20.0006 20.0015 20.0024 20.0033 20.004 20.0046 20.005 20.0052 20.005 20.0046 20.0036 20.0022 20.0003 19.9977 19.9948 19.9918 19.9894 19.9886 19.991 19.9984 20.0127 20.0349 20.0634 20.092 20.1064 20.0804 19.9738 19.7321 19.2929 
20.309 19.9637 19.8231 19.7999 19.8323 19.8818 19.9284 19.9638 19.9868 19.9995 20.0049 20.0058 20.0046 20.0026 20.0008 19.9995 19.9988 19.9987 19.9991 19.9999 20.0008 20.0019 20.003 20.0041 20.0051 20.006 20.0067 20.0071 20.0073 20.0072 20.0067 20.0057 20.0042 20.0021 19.9993 19.996 19.9926 19.9895 19.9878 19.9891 19.9956 20.0094 20.0323 20.064 20.0998 20.1271 20.1212 20.0414 19.8292 19.4122 
20.454 20.0665 19.8865 19.833 19.8453 19.8833 19.9245 19.9582 19.9816 19.9954 20.002 20.0041 20.0037 20.0024 20.001 20 19.9996 19.9997 20.0004 20.0014 20.0026 20.0038 20.0052 20.0064 20.0075 20.0085 20.0092 20.0096 20.0097 20.0095 20.0089 20.0077 20.006 20.0037 20.0007 19.997 19.993 19.9893 19.9867 19.9869 19.9922 20.0052 20.0283 20.0624 20.1046 20.1443 20.1587 20.1077 19.9305 19.546 
20.5878 20.1677 19.9526 19.8701 19.862 19.8876 19.9223 19.9536 19.9768 19.9915 19.9994 20.0026 20.0032 20.0026 20.0018 20.0012 20.0011 20.0016 20.0025 20.0037 20.005 20.0065 20.0079 20.0092 20.0103 20.0112 20.0118 20.0121 20.012 20.0115 20.0106 20.0092 20.0073 20.0046 20.0013 19.9973 19.9929 19.9884 19.985 19.9842 19.9882 20 20.0229 20.0587 20.1064 20.1576 20.192 20.1713 20.0335 19.691 
20.7071 20.2648 20.0201 19.9108 19.8826 19.8952 19.9227 19.9509 19.9733 19.9886 19.9976 20.002 20.0036 20.0038 20.0036 20.0035 20.0038 20.0045 20.0056 20.0068 20.0082 20.0097 20.011 20.0121 20.013 20.0136 20.0139 20.0138 20.0134 20.0126 20.0113 20.0095 20.0072 20.0043 20.0007 19.9964 19.9916 19.9867 19.9825 19.9807 19.9835 19.9941 20.0163 20.0532 20.1053 20.1669 20.2207 20.2307 20.1356 19.8436 
20.809 20.3558 20.0879 19.9547 19.9074 19.9069 19.9267 19.9511 19.9724 19.9879 19.9978 20.0032 20.0058 20.0068 20.0072 20.0074 20.0079 20.0086 20.0096 20.0107 20.0118 20.0129 20.0138 20.0144 20.0148 20.0149 20.0146 20.014 20.013 20.0116 20.0099 20.0077 20.0051 20.002 19.9982 19.9938 19.9889 19.9838 19.9793 19.9767 19.9785 19.988 20.0093 20.0466 20.1021 20.1727 20.2444 20.2849 20.2347 20 
20.891 20.4389 20.1551 20.002 19.9372 19.9239 19.9357 19.9559 19.9755 19.9908 20.0012 20.0074 20.0107 20.0122 20.0127 20.013 20.0132 20.0135 20.0139 20.0143 20.0147 20.0149 20.015 20.0147 20.0142 20.0134 20.0123 20.0109 20.0092 20.0073 20.0052 20.0028 20.0001 19.997 19.9935 19.9894 19.9849 19.9801 19.9758 19.9731 19.9743 19.9828 20.0031 20.0402 20.0979 20.1759 20.2637 20.3332 20.3286 20.1564 
20.9511 20.5126 20.2211 20.053 19.9731 19.9479 19.9516 19.967 19.9843 19.9987 20.009 20.0153 20.0186 20.0198 20.02 20.0195 20.0187 20.0179 20.017 20.016 20.0149 20.0137 20.0123 20.0107 20.0089 20.007 20.005 20.0028 20.0006 19.9984 19.9962 19.994 19.9917 19.9894 19.9868 19.9839 19.9806 19.977 19.9736 19.9715 19.9728 19.9807 20.0001 20.0364 20.0951 20.1783 20.2795 20.3756 20.4156 20.309 
20.9877 20.5758 20.2859 20.1083 20.0164 19.9805 19.9762 19.9863 20.0002 20.0126 20.0215 20.0267 20.0288 20.0287 20.0272 20.0248 20.0219 20.0188 20.0156 20.0124 20.0091 20.0058 20.0025 19.9992 19.9961 19.9931 19.9904 19.9879 19.9857 19.984 19.9826 19.9815 19.9808 19.9803 19.9798 19.9792 19.9783 19.977 19.9757 19.9752 19.9774 19.9853 20.0036 20.0386 20.0967 20.1826 20.2937 20.4125 20.4943 20.454 
21 20.6277 20.349 20.1684 20.068 20.0229 20.0105 20.0142 20.0232 20.0318 20.0375 20.0397 20.0387 20.0354 20.0304 20.0245 20.0181 20.0115 20.0049 19.9985 19.9924 19.9866 19.9814 19.9767 19.9726 19.9693 19.9668 19.9652 19.9645 19.9646 19.9657 19.9676 19.9701 19.9732 19.9765 19.9798 19.9828 19.9852 19.9872 19.9893 19.993 20.0012 20.0184 20.0509 20.1065 20.1917 20.3082 20.4445 20.5636 20.5878 
20.9877 20.6674 20.4097 20.2327 20.1274 20.0742 20.0532 20.0488 20.0506 20.0526 20.0522 20.0485 20.0419 20.0329 20.0225 20.0112 19.9997 19.9885 19.9777 19.9678 19.9589 19.9511 19.9448 19.9398 19.9365 19.9347 19.9347 19.9362 19.9394 19.9442 19.9503 19.9576 19.966 19.9749 19.9841 19.9932 20.0016 20.0089 20.0151 20.0203 20.0258 20.034 20.0491 20.0775 20.1274 20.2078 20.324 20.4713 20.6216 20.7071 
20.9511 20.6933 20.4652 20.2978 20.1906 20.1296 20.0984 20.0831 20.0741 20.0658 20.0556 20.0426 20.0271 20.0099 19.9918 19.9737 19.9562 19.94 19.9255 19.913 19.9028 19.8952 19.8903 19.8882 19.8889 19.8924 19.8986 19.9073 19.9184 19.9315 19.9464 19.9626 19.9796 19.997 20.0142 20.0305 20.0453 20.0579 20.0681 20.0758 20.0818 20.0882 20.0988 20.1199 20.16 20.2298 20.3388 20.4895 20.6647 20.809 
20.891 20.7016 20.5087 20.3545 20.2467 20.1769 20.1325 20.1022 20.0778 20.0545 20.0302 20.0042 19.977 19.9496 19.9229 19.8979 19.8753 19.856 19.8404 19.8288 19.8217 19.819 19.8209 19.8273 19.838 19.8528 19.8712 19.8929 19.9172 19.9436 19.9714 19.9999 20.0285 20.0562 20.0822 20.1058 20.1261 20.1424 20.1541 20.1611 20.1639 20.1642 20.1655 20.1737 20.1976 20.2493 20.3426 20.4885 20.6841 20.891 
20.809 20.6838 20.5254 20.384 20.2739 20.1921 20.13 20.0795 20.0345 19.9917 19.9497 19.9085 19.8687 19.8316 19.7982 19.7696 19.7466 19.73 19.7201 19.7173 19.7215 19.7327 19.7506 19.7746 19.8043 19.8388 19.8773 19.9189 19.9625 20.007 20.0515 20.0947 20.1355 20.1729 20.2058 20.2334 20.2546 20.2688 20.2754 20.2743 20.2661 20.2522 20.2359 20.2226 20.2211 20.2445 20.311 20.4425 20.658 20.9511 
20.7071 20.6218 20.4865 20.3517 20.2341 20.1348 20.0497 19.9742 19.905 19.8405 19.7805 19.7257 19.6772 19.6362 19.604 19.5813 19.569 19.5673 19.5763 19.5959 19.6255 19.6643 19.7115 19.7659 19.826 19.8905 19.9576 20.0259 20.0935 20.1589 20.2203 20.2764 20.3256 20.3668 20.3988 20.4207 20.4319 20.4319 20.4205 20.3981 20.3654 20.3242 20.2776 20.2306 20.1914 20.1731 20.1972 20.2985 20.5326 20.9877 
20.5878 20.476 20.3403 20.2 20.0674 19.9454 19.8338 19.7321 19.64 19.558 19.4874 19.4292 19.385 19.3556 19.342 19.3445 19.3632 19.3975 19.4468 19.5096 19.5847 19.6699 19.7634 19.8626 19.9653 20.0688 20.1707 20.2684 20.3594 20.4417 20.5131 20.5718 20.6165 20.6459 20.6594 20.6565 20.6373 20.602 20.5516 20.4872 20.4105 20.3239 20.2307 20.1353 20.0443 19.9685 19.9272 19.9609 20.1706 21 
20.454 20.1564 20 19.8436 19.691 19.546 19.4122 19.2929 19.191 19.109 19.0489 19.0123 19 19.0123 19.0489 19.109 19.191 19.2929 19.4122 19.546 19.691 19.8436 20 20.1564 20.309 20.454 20.5878 20.7071 20.809 20.891 20.9511 20.9877 21 20.9877 20.9511 20.891 20.809 20.7071 20.5878 20.454 20.309 20.1564 20 19.8436 19.691 19.546 19.4122 19.2929 19.191 20.9877 
