# vtk DataFile Version 3.0
Temperature distribution on a 2D grid
ASCII

DATASET STRUCTURED_POINTS
DIMENSIONS 50 50 1
ORIGIN 0.0 0.0 0.0
SPACING 0.01 0.01 1.0

POINT_DATA 2500
SCALARS temperature double
LOOKUP_TABLE default
20.6613 19.4642 19.6029 19.7513 19.9059 20.0628 20.2181 20.3681 20.509 20.6374 20.7501 20.8443 20.9178 20.9686 20.9956 20.998 20.9759 20.9298 20.8607 20.7705 20.6613 20.5358 20.3971 20.2487 20.0941 19.9372 19.7819 19.6319 19.491 19.3626 19.2499 19.1557 19.0822 19.0314 19.0044 19.002 19.0241 19.0702 19.1393 19.2295 19.3387 19.4642 19.6029 19.7513 19.9059 20.0628 20.2181 20.3681 20.509 20.7501 
20.7705 20.1765 20.0646 20.0871 20.1605 20.2514 20.344 20.4303 20.5056 20.5674 20.6139 20.6441 20.6578 20.6546 20.6351 20.5997 20.5495 20.4858 20.4101 20.3244 20.2307 20.1314 20.0288 19.9256 19.8242 19.7272 19.6368 19.5555 19.4851 19.4274 19.3838 19.3555 19.3431 19.3469 19.3668 19.4024 19.4526 19.5162 19.5914 19.6764 19.769 19.8672 19.9693 20.0745 20.183 20.2967 20.4188 20.5521 20.6952 20.8443 
20.8607 20.4413 20.264 20.2137 20.2265 20.2664 20.3135 20.3571 20.3917 20.4148 20.4253 20.4234 20.4095 20.3846 20.3495 20.3056 20.254 20.1961 20.1334 20.0675 20 19.9326 19.8669 19.8045 19.7469 19.6956 19.6518 19.6166 19.5909 19.5754 19.5703 19.5759 19.5921 19.6184 19.6542 19.6985 19.7502 19.8078 19.8697 19.9341 19.9994 20.0644 20.1288 20.1942 20.2643 20.3461 20.4488 20.5816 20.7453 20.9178 
20.9298 20.5509 20.3367 20.2362 20.2037 20.2064 20.2228 20.2407 20.2533 20.2577 20.2529 20.2393 20.2178 20.1895 20.1557 20.1177 20.0765 20.0334 19.9896 19.9461 19.904 19.8644 19.8282 19.7962 19.7693 19.7482 19.7332 19.7249 19.7234 19.7288 19.741 19.7597 19.7844 19.8147 19.8496 19.8883 19.9296 19.9724 20.0151 20.0564 20.0951 20.1308 20.1642 20.1987 20.2408 20.3013 20.3949 20.537 20.7343 20.9686 
20.9759 20.6039 20.3606 20.2221 20.1552 20.1307 20.127 20.1305 20.1331 20.131 20.1229 20.109 20.0901 20.0673 20.0419 20.0148 19.9871 19.9597 19.9333 19.9087 19.8865 19.8671 19.8511 19.8388 19.8305 19.8264 19.8267 19.8313 19.8401 19.853 19.8696 19.8896 19.9125 19.9378 19.9648 19.9928 20.0208 20.0479 20.073 20.0948 20.1126 20.1262 20.1372 20.1499 20.1727 20.2192 20.3086 20.4619 20.6937 20.9956 
20.998 20.6344 20.3719 20.2055 20.1128 20.0683 20.0513 20.0469 20.0459 20.0437 20.0381 20.0288 20.0164 20.0019 19.9861 19.97 19.9544 19.9398 19.9267 19.9155 19.9065 19.8999 19.8959 19.8945 19.8957 19.8996 19.906 19.9148 19.9258 19.9387 19.9533 19.9692 19.9862 20.0037 20.0215 20.0388 20.0552 20.0696 20.0813 20.0892 20.0926 20.0916 20.0878 20.0859 20.0953 20.1316 20.2169 20.3779 20.637 20.998 
20.9956 20.6527 20.3833 20.1992 20.0879 20.0289 20.0023 19.9932 19.9916 19.9914 19.9901 19.9866 19.9812 19.9743 19.9669 19.9595 19.9528 19.9471 19.9427 19.9398 19.9386 19.9389 19.9408 19.9442 19.9491 19.9553 19.9627 19.971 19.9802 19.99 20.0002 20.0106 20.0211 20.0314 20.0412 20.0503 20.058 20.0639 20.0669 20.0663 20.0611 20.0513 20.0383 20.0268 20.0263 20.0533 20.1322 20.2942 20.5698 20.9759 
20.9686 20.6608 20.397 20.2045 20.081 20.0112 19.9774 19.9649 19.9631 19.9652 19.9678 19.9693 19.9695 19.9686 19.9672 19.9658 19.9648 19.9645 19.9651 19.9666 19.9689 19.9722 19.9762 19.9809 19.9861 19.9917 19.9975 20.0036 20.0096 20.0155 20.0213 20.0268 20.032 20.0368 20.041 20.0446 20.047 20.0479 20.0463 20.0412 20.0317 20.0173 19.999 19.9809 19.9721 19.9893 20.0583 20.2138 20.4943 20.9298 
20.9178 20.6576 20.4104 20.2178 20.0875 20.0099 19.9703 19.9547 19.9522 19.9557 19.961 19.966 19.97 19.9731 19.9756 19.9777 19.9799 19.9824 19.9852 19.9884 19.9919 19.9958 19.9998 20.0038 20.0079 20.0118 20.0155 20.0188 20.0219 20.0245 20.0268 20.0286 20.0302 20.0314 20.0323 20.0328 20.0327 20.0313 20.0278 20.0212 20.0102 19.9939 19.9727 19.9497 19.9334 19.9397 19.9951 20.1373 20.4114 20.8607 
20.8443 20.6418 20.4203 20.2347 20.1021 20.0192 19.9746 19.9556 19.9517 19.9554 19.962 19.9691 19.9754 19.9807 19.9852 19.9892 19.9928 19.9963 19.9998 20.0032 20.0066 20.0098 20.0129 20.0158 20.0182 20.0203 20.022 20.0232 20.0239 20.0242 20.0242 20.0238 20.0232 20.0226 20.0219 20.0212 20.0201 20.0183 20.0148 20.0084 19.9976 19.981 19.9582 19.9314 19.9077 19.9022 19.9411 20.0639 20.3219 20.7705 
20.7501 20.6123 20.4238 20.2508 20.1199 20.0339 19.985 19.9626 19.9565 19.9594 19.9662 19.9739 19.9812 19.9876 19.993 19.9976 20.0017 20.0052 20.0085 20.0114 20.0141 20.0164 20.0184 20.02 20.0211 20.0217 20.0219 20.0216 20.0209 20.0198 20.0185 20.017 20.0155 20.0141 20.013 20.0121 20.0113 20.01 20.0074 20.0022 19.9925 19.9765 19.953 19.923 19.8922 19.8743 19.8944 19.9933 20.2267 20.6613 
20.6374 20.5687 20.4187 20.2633 20.1374 20.0502 19.9979 19.972 19.9633 19.9646 19.9706 19.9782 19.9857 19.9923 19.9979 20.0026 20.0064 20.0097 20.0124 20.0146 20.0165 20.0179 20.019 20.0195 20.0197 20.0194 20.0186 20.0175 20.016 20.0143 20.0125 20.0106 20.0089 20.0076 20.0067 20.0062 20.0061 20.0059 20.0046 20.0009 19.9927 19.9778 19.9541 19.9216 19.8842 19.8537 19.8539 19.9253 20.1272 20.5358 
20.509 20.5116 20.4041 20.2701 20.1523 20.0659 20.0111 19.9819 19.9703 19.9695 19.9742 19.9811 19.9883 19.9947 20.0001 20.0045 20.008 20.0108 20.013 20.0146 20.0158 20.0165 20.0169 20.0168 20.0163 20.0155 20.0143 20.0128 20.0112 20.0093 20.0075 20.0057 20.0043 20.0032 20.0028 20.003 20.0038 20.0046 20.0047 20.0026 19.9961 19.9825 19.9592 19.9247 19.8814 19.8388 19.8186 19.8603 20.0253 20.3971 
20.3681 20.4419 20.3795 20.2703 20.1633 20.0795 20.0234 19.9913 19.9768 19.9737 19.9768 19.9826 19.9891 19.9952 20.0003 20.0043 20.0075 20.0099 20.0116 20.0127 20.0135 20.0138 20.0137 20.0133 20.0125 20.0115 20.0102 20.0087 20.0071 20.0054 20.0038 20.0024 20.0013 20.0007 20.0008 20.0017 20.0032 20.0051 20.0064 20.0059 20.0011 19.989 19.9664 19.9308 19.8825 19.8287 19.7885 19.7993 19.9229 20.2487 
20.2181 20.3613 20.3454 20.2635 20.1698 20.0904 20.0341 19.9997 19.9826 19.9771 19.9785 19.9831 19.9888 19.9944 19.9991 20.0029 20.0058 20.0078 20.0092 20.0101 20.0106 20.0106 20.0104 20.0098 20.0091 20.008 20.0069 20.0055 20.0041 20.0027 20.0014 20.0004 19.9996 19.9995 20 20.0014 20.0035 20.0062 20.0086 20.0094 20.0063 19.996 19.9746 19.9386 19.8864 19.8228 19.7635 19.7432 19.8224 20.0941 
20.0628 20.2716 20.3025 20.2497 20.1714 20.0984 20.043 20.0072 19.9878 19.9801 19.9796 19.983 19.9879 19.9929 19.9973 20.0008 20.0035 20.0054 20.0067 20.0074 20.0078 20.0077 20.0075 20.0069 20.0062 20.0053 20.0043 20.0032 20.0021 20.001 20 19.9992 19.9988 19.999 19.9998 20.0015 20.004 20.0073 20.0106 20.0126 20.0111 20.0027 19.983 19.9474 19.8927 19.8208 19.7441 19.6931 19.7262 19.9372 
19.9059 20.175 20.2519 20.2293 20.1683 20.1033 20.0502 20.0138 19.9925 19.9828 19.9806 19.9828 19.9868 19.9913 19.9953 19.9987 20.0013 20.0031 20.0043 20.005 20.0053 20.0053 20.0051 20.0046 20.004 20.0033 20.0025 20.0017 20.0008 20 19.9992 19.9987 19.9985 19.9988 19.9998 20.0016 20.0044 20.008 20.0119 20.015 20.0151 20.0088 19.9912 19.9569 19.9011 19.8228 19.7305 19.6504 19.6366 19.7819 
19.7513 20.0741 20.1948 20.203 20.1606 20.1052 20.0557 20.0195 19.997 19.9855 19.9818 19.9827 19.9858 19.9898 19.9936 19.9968 19.9993 20.0011 20.0023 20.003 20.0033 20.0034 20.0033 20.0029 20.0025 20.002 20.0014 20.0007 20.0001 19.9994 19.9989 19.9985 19.9984 19.9987 19.9997 20.0015 20.0043 20.0081 20.0125 20.0165 20.0181 20.0139 19.999 19.9669 19.9113 19.8286 19.7232 19.6159 19.5557 19.6319 
19.6029 19.9712 20.1328 20.1715 20.1488 20.1042 20.0596 20.0245 20.0012 19.9884 19.9832 19.9829 19.9852 19.9886 19.9921 19.9952 19.9976 19.9994 20.0006 20.0014 20.0018 20.002 20.002 20.0018 20.0015 20.0011 20.0006 20.0001 19.9996 19.9991 19.9987 19.9984 19.9983 19.9985 19.9994 20.0011 20.0037 20.0075 20.0122 20.017 20.0201 20.0182 20.0061 19.9771 19.9232 19.8382 19.7223 19.5907 19.4857 19.491 
19.4642 19.869 20.0674 20.1356 20.1331 20.1005 20.0617 20.0287 20.0053 19.9914 19.985 19.9836 19.9851 19.9879 19.9911 19.994 19.9963 19.9981 19.9994 20.0003 20.0008 20.001 20.001 20.001 20.0008 20.0005 20.0002 19.9998 19.9994 19.999 19.9986 19.9983 19.9981 19.9983 19.9989 20.0003 20.0027 20.0064 20.0112 20.0167 20.0211 20.0215 20.0127 19.9874 19.9366 19.8514 19.728 19.5754 19.4283 19.3626 
19.3387 19.77 20.0003 20.0963 20.114 20.0942 20.0623 20.0321 20.0092 19.9947 19.9872 19.9848 19.9855 19.9877 19.9905 19.9931 19.9954 19.9972 19.9985 19.9994 20 20.0003 20.0004 20.0004 20.0003 20.0001 19.9999 19.9996 19.9993 19.9989 19.9985 19.9981 19.9979 19.9978 19.9982 19.9993 20.0014 20.0048 20.0096 20.0155 20.0212 20.0239 20.0186 19.9977 19.9512 19.8681 19.7402 19.5704 19.3849 19.2499 
19.2295 19.6767 19.9332 20.0546 20.0921 20.0855 20.0613 20.0347 20.0129 19.9981 19.9898 19.9864 19.9863 19.9879 19.9903 19.9927 19.9949 19.9966 19.9979 19.9988 19.9995 19.9998 20 20.0001 20 19.9999 19.9998 19.9995 19.9992 19.9989 19.9984 19.998 19.9976 19.9973 19.9974 19.9981 19.9997 20.0028 20.0075 20.0137 20.0205 20.0254 20.0238 20.0079 19.9669 19.8878 19.7587 19.5759 19.3565 19.1557 
19.1393 19.5913 19.8677 20.0115 20.0679 20.0747 20.0588 20.0365 20.0163 20.0016 19.9927 19.9885 19.9875 19.9885 19.9904 19.9926 19.9946 19.9963 19.9975 19.9985 19.9991 19.9995 19.9998 19.9999 19.9999 19.9998 19.9997 19.9995 19.9992 19.9988 19.9984 19.9978 19.9972 19.9967 19.9965 19.9967 19.9979 20.0005 20.005 20.0114 20.0191 20.0262 20.0282 20.0176 19.9832 19.9102 19.783 19.5918 19.344 19.0822 
19.0702 19.5159 19.8055 19.9681 20.042 20.0621 20.0548 20.0374 20.0194 20.0051 19.9958 19.9909 19.9892 19.9895 19.991 19.9928 19.9946 19.9961 19.9973 19.9982 19.9989 19.9993 19.9996 19.9997 19.9998 19.9997 19.9996 19.9994 19.9992 19.9988 19.9983 19.9976 19.9969 19.9961 19.9955 19.9954 19.9961 19.9982 20.0022 20.0087 20.0171 20.0261 20.0318 20.0269 19.9999 19.9347 19.8127 19.6177 19.3476 19.0314 
19.0241 19.4525 19.748 19.9255 20.0151 20.0479 20.0495 20.0373 20.0219 20.0085 19.999 19.9935 19.9911 19.9908 19.9917 19.9932 19.9947 19.9961 19.9972 19.9981 19.9988 19.9992 19.9995 19.9996 19.9997 19.9997 19.9996 19.9995 19.9992 19.9988 19.9982 19.9975 19.9966 19.9956 19.9947 19.9941 19.9942 19.9958 19.9994 20.0056 20.0147 20.0254 20.0346 20.0354 20.0165 19.9608 19.8468 19.6529 19.3673 19.0044 
19.002 19.4025 19.6967 19.8847 19.9878 20.0326 20.043 20.0363 20.0239 20.0117 20.0023 19.9963 19.9933 19.9924 19.9927 19.9938 19.995 19.9962 19.9973 19.9981 19.9987 19.9991 19.9994 19.9996 19.9997 19.9997 19.9996 19.9995 19.9992 19.9988 19.9982 19.9974 19.9964 19.9952 19.9939 19.9929 19.9925 19.9934 19.9965 20.0024 20.0118 20.024 20.0364 20.043 20.0327 19.9878 19.8848 19.6967 19.4026 19.002 
19.0044 19.3673 19.6529 19.8468 19.9607 20.0164 20.0353 20.0344 20.0253 20.0145 20.0055 19.9992 19.9956 19.994 19.9939 19.9945 19.9954 19.9964 19.9973 19.9981 19.9987 19.9991 19.9994 19.9996 19.9997 19.9997 19.9997 19.9995 19.9993 19.9989 19.9983 19.9974 19.9963 19.9949 19.9934 19.9919 19.991 19.9913 19.9937 19.9992 20.0086 20.022 20.0374 20.0496 20.048 20.0151 19.9256 19.748 19.4525 19.0241 
19.0314 19.3476 19.6176 19.8126 19.9346 19.9998 20.0268 20.0316 20.026 20.017 20.0084 20.002 19.9979 19.9958 19.9951 19.9953 19.9959 19.9967 19.9974 19.9981 19.9986 19.999 19.9993 19.9996 19.9997 19.9998 19.9998 19.9997 19.9994 19.999 19.9984 19.9975 19.9963 19.9948 19.993 19.9912 19.9898 19.9894 19.9911 19.996 20.0053 20.0195 20.0375 20.0549 20.0622 20.0421 19.9682 19.8055 19.5159 19.0702 
19.0822 19.344 19.5917 19.7829 19.9101 19.9831 20.0174 20.0279 20.0259 20.0188 20.0111 20.0047 20.0002 19.9976 19.9964 19.9961 19.9964 19.9969 19.9975 19.9981 19.9986 19.999 19.9993 19.9996 19.9998 19.9999 19.9999 19.9999 19.9997 19.9993 19.9987 19.9978 19.9966 19.9949 19.9929 19.9908 19.9889 19.9879 19.9888 19.993 20.0019 20.0165 20.0367 20.0589 20.0748 20.068 20.0115 19.8677 19.5913 19.1393 
19.1557 19.3565 19.5758 19.7586 19.8876 19.9666 20.0075 20.0234 20.025 20.0201 20.0133 20.007 20.0023 19.9992 19.9975 19.9969 19.9968 19.9971 19.9976 19.9981 19.9986 19.999 19.9993 19.9997 19.9999 20.0001 20.0002 20.0002 20.0001 19.9998 19.9992 19.9983 19.9971 19.9953 19.9932 19.9907 19.9884 19.9867 19.9868 19.9902 19.9984 20.0132 20.035 20.0615 20.0856 20.0922 20.0546 19.9333 19.6767 19.2295 
19.2499 19.3848 19.5702 19.74 19.8678 19.9508 19.9972 20.018 20.0233 20.0205 20.0148 20.0089 20.004 20.0006 19.9985 19.9975 19.9971 19.9972 19.9976 19.998 19.9985 19.999 19.9994 19.9998 20.0002 20.0004 20.0006 20.0008 20.0007 20.0005 20 19.9992 19.9979 19.9961 19.9938 19.9911 19.9883 19.9861 19.9853 19.9877 19.9951 20.0096 20.0324 20.0625 20.0943 20.1141 20.0964 20.0004 19.7701 19.3387 
19.3626 19.4282 19.5751 19.7276 19.8509 19.9359 19.9867 20.0118 20.0206 20.0201 20.0156 20.0102 20.0053 20.0017 19.9993 19.9979 19.9973 19.9973 19.9975 19.998 19.9985 19.999 19.9996 20.0001 20.0006 20.001 20.0013 20.0016 20.0016 20.0015 20.0011 20.0003 19.9991 19.9973 19.9949 19.992 19.9888 19.9859 19.9843 19.9856 19.992 20.0057 20.029 20.062 20.1006 20.1332 20.1356 20.0675 19.869 19.4642 
19.491 19.4855 19.5903 19.7217 19.8374 19.9222 19.976 20.0049 20.0168 20.0187 20.0156 20.0108 20.0061 20.0023 19.9997 19.9981 19.9973 19.9972 19.9974 19.9979 19.9986 19.9993 20 20.0007 20.0013 20.0019 20.0024 20.0028 20.003 20.0029 20.0026 20.0019 20.0007 19.9989 19.9964 19.9933 19.9898 19.9863 19.9838 19.9839 19.989 20.0017 20.0248 20.0598 20.1043 20.1488 20.1715 20.1328 19.9712 19.6029 
19.6319 19.5554 19.6153 19.7223 19.8274 19.9099 19.9653 19.9972 20.0121 20.0162 20.0145 20.0105 20.0061 20.0024 19.9997 19.998 19.9972 19.9971 19.9974 19.998 19.9988 19.9997 20.0007 20.0016 20.0025 20.0033 20.004 20.0045 20.0048 20.0049 20.0046 20.004 20.0028 20.001 19.9984 19.9951 19.9912 19.9871 19.9837 19.9826 19.9861 19.9974 20.0197 20.0558 20.1052 20.1606 20.2029 20.1947 20.074 19.7513 
19.7819 19.6361 19.6495 19.7292 19.8212 19.8992 19.9548 19.9889 20.0063 20.0126 20.0125 20.0094 20.0055 20.002 19.9994 19.9978 19.9971 19.9971 19.9976 19.9984 19.9995 20.0007 20.0019 20.0031 20.0042 20.0053 20.0061 20.0068 20.0072 20.0074 20.0071 20.0065 20.0053 20.0034 20.0007 19.9971 19.9928 19.9881 19.9838 19.9814 19.9832 19.9927 20.0138 20.0501 20.103 20.168 20.2291 20.2517 20.1749 19.9059 
19.9372 19.7256 19.692 19.7424 19.8187 19.8902 19.9446 19.98 19.9996 20.0079 20.0095 20.0075 20.0044 20.0014 19.9991 19.9977 19.9972 19.9975 19.9983 19.9994 20.0009 20.0024 20.0039 20.0054 20.0068 20.008 20.009 20.0097 20.0102 20.0103 20.01 20.0093 20.0079 20.0059 20.003 19.9991 19.9944 19.9891 19.9838 19.9801 19.9802 19.9876 20.0068 20.0425 20.0978 20.1708 20.2492 20.3021 20.2714 20.0628 
20.0941 19.8217 19.7417 19.7615 19.8201 19.8833 19.9351 19.971 19.9923 20.0026 20.0059 20.0053 20.0031 20.0008 19.999 19.9981 19.998 19.9986 19.9998 20.0014 20.0032 20.005 20.0069 20.0086 20.0101 20.0114 20.0125 20.0132 20.0135 20.0135 20.013 20.012 20.0104 20.008 20.0048 20.0006 19.9955 19.9895 19.9833 19.9783 19.9766 19.9817 19.9987 20.0329 20.0893 20.1687 20.2627 20.3448 20.361 20.2181 
20.2487 19.9221 19.7977 19.7862 19.8258 19.8791 19.9271 19.9626 19.9852 19.9973 20.0023 20.0033 20.0023 20.0009 19.9999 19.9996 20 20.0011 20.0028 20.0047 20.0068 20.0089 20.0109 20.0127 20.0142 20.0154 20.0163 20.0167 20.0168 20.0163 20.0154 20.014 20.0119 20.0091 20.0055 20.001 19.9954 19.9888 19.9818 19.9756 19.9721 19.975 19.9894 20.0215 20.0778 20.1619 20.2692 20.3788 20.4416 20.3681 
20.3971 20.0245 19.8589 19.8166 19.8362 19.8784 19.9214 19.9558 19.9793 19.9932 20 20.0026 20.0031 20.0028 20.0027 20.003 20.004 20.0055 20.0074 20.0096 20.0118 20.0138 20.0157 20.0173 20.0185 20.0193 20.0196 20.0195 20.0189 20.0178 20.0162 20.0141 20.0115 20.0082 20.0042 19.9992 19.9933 19.9864 19.9788 19.9716 19.9667 19.9675 19.9792 20.0087 20.0639 20.1508 20.2691 20.4034 20.5113 20.509 
20.5358 20.1269 19.9246 19.8528 19.8524 19.8827 19.92 19.9526 19.9765 19.9919 20.0006 20.0049 20.0068 20.0076 20.0083 20.0092 20.0105 20.0121 20.014 20.0159 20.0177 20.0193 20.0206 20.0214 20.0218 20.0217 20.0211 20.0199 20.0184 20.0163 20.0139 20.011 20.0078 20.004 19.9996 19.9945 19.9886 19.9816 19.974 19.9664 19.9605 19.9597 19.9689 19.9956 20.0486 20.1365 20.263 20.4187 20.5688 20.6374 
20.6613 20.2273 19.9944 19.8959 19.876 19.8942 19.9252 19.9555 19.9794 19.9958 20.0061 20.0118 20.0149 20.0165 20.0176 20.0186 20.0196 20.0207 20.0218 20.0228 20.0235 20.0238 20.0236 20.023 20.0219 20.0203 20.0182 20.0158 20.0129 20.0098 20.0065 20.0029 19.9992 19.9953 19.9911 19.9864 19.981 19.9749 19.968 19.9608 19.9549 19.9531 19.9604 19.9842 20.0343 20.1213 20.2527 20.4255 20.6133 20.7501 
20.7705 20.3243 20.0685 19.9474 19.9097 19.9161 19.9404 19.9676 19.9907 20.0076 20.0186 20.0251 20.0285 20.03 20.0306 20.0306 20.0303 20.0297 20.0289 20.0277 20.0261 20.0241 20.0216 20.0187 20.0154 20.0118 20.0079 20.0039 19.9998 19.9958 19.9919 19.9882 19.9848 19.9816 19.9784 19.9752 19.9717 19.9675 19.9626 19.9573 19.9526 19.951 19.9571 19.9782 20.0246 20.1085 20.2411 20.4256 20.6448 20.8443 
20.8607 20.4169 20.1476 20.0093 19.9566 19.9519 19.9691 19.9923 20.0134 20.0293 20.0396 20.0452 20.0474 20.0471 20.0454 20.0427 20.0392 20.0352 20.0308 20.0259 20.0207 20.0151 20.0093 20.0034 19.9975 19.9916 19.9861 19.9809 19.9763 19.9722 19.969 19.9665 19.9648 19.9639 19.9636 19.9637 19.9637 19.9633 19.9622 19.9603 19.9584 19.9583 19.9642 19.9829 20.0248 20.1032 20.2325 20.4219 20.664 20.9178 
20.9298 20.5045 20.233 20.0843 20.0199 20.0051 20.0146 20.0321 20.049 20.0613 20.0681 20.0701 20.0682 20.0635 20.0568 20.0487 20.0397 20.0301 20.02 20.0098 19.9996 19.9896 19.9799 19.9709 19.9626 19.9553 19.9491 19.9443 19.9409 19.939 19.9386 19.9399 19.9426 19.9467 19.9518 19.9577 19.9638 19.9695 19.9742 19.9777 19.9801 19.9829 19.9893 20.0055 20.0416 20.1116 20.2321 20.418 20.6722 20.9686 
20.9759 20.5864 20.3252 20.1739 20.1014 20.0771 20.0772 20.086 20.0948 20.0994 20.0986 20.0927 20.0827 20.0695 20.0542 20.0376 20.0202 20.0026 19.9853 19.9685 19.9528 19.9384 19.9256 19.9147 19.9059 19.8996 19.8958 19.8945 19.896 19.9 19.9066 19.9156 19.9266 19.9395 19.9536 19.9685 19.9834 19.9976 20.0101 20.0203 20.0281 20.0341 20.0409 20.0537 20.0819 20.1392 20.2442 20.4169 20.6704 20.9956 
20.998 20.6613 20.4229 20.2765 20.1988 20.164 20.1513 20.1464 20.1412 20.1319 20.1173 20.0977 20.0742 20.048 20.0202 19.9918 19.9638 19.9369 19.9117 19.889 19.8692 19.8527 19.8399 19.8312 19.8266 19.8264 19.8305 19.8388 19.8511 19.8672 19.8866 19.9088 19.9334 19.9595 19.9866 20.0136 20.0396 20.0637 20.0846 20.1014 20.1135 20.1212 20.1262 20.1328 20.1489 20.188 20.2693 20.4176 20.6572 20.998 
20.9956 20.7249 20.5196 20.3833 20.3006 20.2517 20.2198 20.1934 20.166 20.1346 20.0986 20.0587 20.0161 19.9725 19.9292 19.8876 19.8488 19.814 19.7839 19.7592 19.7407 19.7286 19.7233 19.7248 19.7332 19.7482 19.7694 19.7963 19.8283 19.8645 19.9042 19.9462 19.9897 20.0333 20.0761 20.1168 20.154 20.1866 20.2133 20.233 20.2448 20.2488 20.246 20.2399 20.2371 20.2498 20.2974 20.409 20.6227 20.9759 
20.9686 20.7665 20.5977 20.4715 20.3794 20.3085 20.2476 20.1892 20.1293 20.0666 20.0016 19.9356 19.8704 19.808 19.75 19.6981 19.6537 19.6179 19.5917 19.5756 19.5701 19.5752 19.5908 19.6166 19.6518 19.6956 19.7469 19.8045 19.8669 19.9327 20.0001 20.0676 20.1335 20.196 20.2537 20.305 20.3484 20.3825 20.4064 20.4188 20.4194 20.408 20.3856 20.355 20.3218 20.2962 20.2969 20.3568 20.5335 20.9298 
20.9178 20.7591 20.619 20.4942 20.3818 20.2764 20.1737 20.0714 19.9693 19.8682 19.7701 19.6771 19.5918 19.5162 19.4525 19.4021 19.3666 19.3467 19.3429 19.3553 19.3837 19.4273 19.485 19.5555 19.6368 19.7272 19.8242 19.9256 20.0289 20.1314 20.2308 20.3245 20.4102 20.4858 20.5494 20.5994 20.6345 20.6536 20.6561 20.6418 20.6107 20.5637 20.5021 20.4287 20.3479 20.2674 20.2021 20.1838 20.2914 20.8607 
20.8443 20.6374 20.509 20.3681 20.2181 20.0628 19.9059 19.7513 19.6029 19.4642 19.3387 19.2295 19.1393 19.0702 19.0241 19.002 19.0044 19.0314 19.0822 19.1557 19.2499 19.3626 19.491 19.6319 19.7819 19.9372 20.0941 20.2487 20.3971 20.5358 20.6613 20.7705 20.8607 20.9298 20.9759 20.998 20.9956 20.9686 20.9178 20.8443 20.7501 20.6374 20.509 20.3681 20.2181 20.0628 19.9059 19.7513 19.6029 20.7705 
