# vtk DataFile Version 3.0
Temperature distribution on a 2D grid
ASCII

DATASET STRUCTURED_POINTS
DIMENSIONS 50 50 1
ORIGIN 0.0 0.0 0.0
SPACING 0.01 0.01 1.0

POINT_DATA 2500
SCALARS temperature double
LOOKUP_TABLE default
20.891 19.191 19.2929 19.4122 19.546 19.691 19.8436 20 20.1564 20.309 20.454 20.5878 20.7071 20.809 20.891 20.9511 20.9877 21 20.9877 20.9511 20.891 20.809 20.7071 20.5878 20.454 20.309 20.1564 20 19.8436 19.691 19.546 19.4122 19.2929 19.191 19.109 19.0489 19.0123 19 19.0123 19.0489 19.109 19.191 19.2929 19.4122 19.546 19.691 19.8436 20 20.1564 20.454 
20.9511 20.1294 19.9251 19.8989 19.9481 20.0306 20.1267 20.2257 20.3213 20.4093 20.4868 20.5515 20.6021 20.6373 20.6565 20.6593 20.6458 20.6164 20.5718 20.5131 20.4418 20.3596 20.2687 20.1711 20.0693 19.9658 19.8632 19.764 19.6706 19.5853 19.5103 19.4474 19.3981 19.3637 19.345 19.3424 19.356 19.3852 19.4294 19.4875 19.5581 19.64 19.732 19.8337 19.9453 20.0673 20.1999 20.3402 20.476 20.5878 
20.9877 20.4879 20.245 20.15 20.137 20.1663 20.2146 20.2683 20.3194 20.3632 20.3973 20.4204 20.4319 20.4319 20.4207 20.3986 20.3666 20.3255 20.2763 20.2204 20.1591 20.0939 20.0264 19.9583 19.8913 19.827 19.767 19.7127 19.6656 19.6267 19.5972 19.5776 19.5685 19.5701 19.5823 19.6048 19.637 19.6778 19.7261 19.7808 19.8406 19.905 19.9741 20.0496 20.1346 20.2339 20.3515 20.4864 20.6217 20.7071 
21 20.6281 20.3866 20.255 20.1989 20.1883 20.2012 20.2232 20.2455 20.263 20.2732 20.2752 20.2688 20.2546 20.2333 20.2056 20.1726 20.1353 20.0946 20.0515 20.0073 19.963 19.9196 19.8783 19.84 19.8057 19.7762 19.7523 19.7345 19.7234 19.7191 19.7219 19.7317 19.7482 19.771 19.7994 19.8326 19.8695 19.9091 19.9501 19.9919 20.0346 20.0794 20.1298 20.1918 20.2737 20.3838 20.5252 20.6837 20.809 
20.9877 20.6784 20.4408 20.2863 20.2 20.1606 20.1488 20.1504 20.1561 20.1601 20.1597 20.1538 20.1425 20.1262 20.1057 20.082 20.0559 20.0282 19.9998 19.9715 19.9439 19.9178 19.8938 19.8725 19.8543 19.8398 19.8293 19.8231 19.8213 19.8239 19.8311 19.8426 19.8581 19.8773 19.8996 19.9245 19.9509 19.9781 20.005 20.0307 20.0548 20.0779 20.1021 20.1323 20.1766 20.2464 20.3542 20.5085 20.7015 20.891 
20.9511 20.6875 20.4565 20.2882 20.1812 20.1217 20.0932 20.0823 20.0791 20.0775 20.0742 20.0678 20.0581 20.0454 20.0304 20.014 19.9967 19.9794 19.9625 19.9465 19.932 19.9192 19.9084 19.9 19.8941 19.8909 19.8904 19.8927 19.8977 19.9054 19.9156 19.928 19.9424 19.9585 19.9757 19.9936 20.0114 20.0283 20.0435 20.0562 20.0662 20.0743 20.0831 20.0983 20.1294 20.1903 20.2975 20.465 20.6932 20.9511 
20.891 20.6744 20.4567 20.2829 20.1632 20.09 20.0504 20.0317 20.0241 20.021 20.0185 20.0147 20.0091 20.0018 19.9932 19.984 19.9747 19.9658 19.9576 19.9505 19.9446 19.9403 19.9374 19.9362 19.9366 19.9386 19.9422 19.9473 19.9539 19.9617 19.9706 19.9805 19.9911 20.0022 20.0134 20.0244 20.0346 20.0432 20.0496 20.053 20.0531 20.0508 20.0488 20.0531 20.074 20.1272 20.2325 20.4095 20.6673 20.9877 
20.809 20.6462 20.4502 20.2791 20.1532 20.0715 20.0245 20.0008 19.9908 19.9877 19.9871 19.9866 19.9853 19.983 19.9799 19.9764 19.973 19.97 19.9676 19.9659 19.9651 19.9653 19.9664 19.9684 19.9712 19.9748 19.9791 19.984 19.9894 19.9952 20.0014 20.0077 20.0142 20.0206 20.0268 20.0325 20.0371 20.0402 20.0409 20.0384 20.0325 20.0236 20.0144 20.0106 20.0229 20.0679 20.1683 20.3489 20.6276 21 
20.7071 20.6052 20.439 20.278 20.1517 20.0655 20.0134 19.9862 19.9746 19.9717 19.9728 19.975 19.9771 19.9785 19.9794 19.9799 19.9802 19.9808 19.9816 19.9828 19.9845 19.9866 19.9891 19.9919 19.995 19.9982 20.0016 20.0051 20.0085 20.0119 20.0152 20.0184 20.0215 20.0244 20.0271 20.0293 20.0306 20.0304 20.028 20.0226 20.0134 20.0008 19.9867 19.9765 19.9807 20.0165 20.1083 20.2859 20.5758 20.9877 
20.5878 20.5521 20.4225 20.2779 20.1559 20.0683 20.0131 19.9831 19.9699 19.9668 19.9688 19.9727 19.977 19.9809 19.9841 19.9869 19.9894 19.9918 19.9941 19.9965 19.9989 20.0014 20.0039 20.0064 20.0088 20.011 20.013 20.0147 20.0163 20.0176 20.0186 20.0196 20.0204 20.0211 20.0217 20.022 20.0217 20.0202 20.0167 20.0102 19.9997 19.9851 19.9677 19.9522 19.9483 19.9734 20.0532 20.2213 20.5126 20.9511 
20.454 20.4874 20.3995 20.2761 20.1625 20.0761 20.0193 19.9869 19.972 19.968 19.97 19.9747 19.9801 19.9852 19.9898 19.9937 19.9972 20.0002 20.003 20.0055 20.0079 20.01 20.0119 20.0136 20.015 20.0161 20.0168 20.0172 20.0173 20.0171 20.0168 20.0163 20.0159 20.0155 20.0151 20.0148 20.014 20.0124 20.009 20.0026 19.992 19.9765 19.9568 19.9365 19.9246 19.9377 20.0024 20.1554 20.439 20.891 
20.309 20.4119 20.3688 20.2707 20.1686 20.0857 20.0284 19.9941 19.9773 19.972 19.9733 19.9779 19.9836 19.9892 19.9942 19.9985 20.0022 20.0053 20.008 20.0102 20.0121 20.0137 20.0149 20.0158 20.0163 20.0165 20.0163 20.0158 20.015 20.014 20.0129 20.0118 20.0108 20.01 20.0095 20.0091 20.0087 20.0076 20.0049 19.9993 19.9893 19.9737 19.9523 19.9278 19.9079 19.9082 19.9553 20.0883 20.356 20.809 
20.1564 20.3269 20.3302 20.2599 20.1721 20.0947 20.0381 20.0024 19.9837 19.9768 19.977 19.9809 19.9863 19.9918 19.9968 20.0011 20.0046 20.0075 20.0098 20.0117 20.0131 20.0141 20.0147 20.0149 20.0149 20.0144 20.0137 20.0127 20.0115 20.0101 20.0088 20.0075 20.0065 20.0058 20.0055 20.0055 20.0057 20.0054 20.0037 19.9993 19.9903 19.9749 19.9524 19.9241 19.8965 19.8836 19.9116 20.0207 20.2651 20.7071 
20 20.2341 20.2839 20.2433 20.1718 20.1017 20.0469 20.0105 19.9901 19.9813 19.9801 19.9831 19.9878 19.9929 19.9977 20.0017 20.005 20.0076 20.0096 20.011 20.012 20.0126 20.0128 20.0127 20.0122 20.0115 20.0105 20.0093 20.008 20.0066 20.0053 20.0042 20.0033 20.0029 20.003 20.0035 20.0044 20.005 20.0045 20.0012 19.9934 19.9787 19.9554 19.924 19.8892 19.8633 19.8712 19.9533 20.168 20.5878 
19.8436 20.1355 20.2305 20.2206 20.1671 20.1058 20.0541 20.0176 19.9958 19.9854 19.9826 19.9844 19.9884 19.993 19.9973 20.0011 20.0041 20.0064 20.0081 20.0093 20.01 20.0103 20.0102 20.0099 20.0093 20.0085 20.0075 20.0064 20.0051 20.0039 20.0028 20.0019 20.0013 20.0012 20.0016 20.0027 20.0042 20.0056 20.0061 20.0041 19.9975 19.9837 19.9603 19.9264 19.8851 19.8468 19.8342 19.8874 20.067 20.454 
19.691 20.0335 20.1714 20.1922 20.1578 20.1068 20.0593 20.0236 20.0007 19.9888 19.9846 19.9852 19.9883 19.9923 19.9962 19.9997 20.0025 20.0046 20.0061 20.0071 20.0076 20.0078 20.0077 20.0073 20.0067 20.0059 20.005 20.004 20.003 20.002 20.0011 20.0004 20.0001 20.0002 20.001 20.0024 20.0044 20.0065 20.0079 20.0071 20.0018 19.9892 19.9661 19.9306 19.8839 19.8341 19.8014 19.8241 19.9642 20.309 
19.546 19.9305 20.1077 20.1587 20.1443 20.1046 20.0625 20.0282 20.005 19.9918 19.9863 19.9857 19.9879 19.9913 19.9948 19.998 20.0006 20.0026 20.004 20.0049 20.0054 20.0055 20.0054 20.0051 20.0046 20.0039 20.0032 20.0023 20.0015 20.0007 20 19.9995 19.9994 19.9997 20.0007 20.0024 20.0047 20.0073 20.0094 20.0097 20.0058 19.9946 19.9725 19.9362 19.8852 19.8251 19.7731 19.7651 19.8623 20.1564 
19.4122 19.8292 20.0413 20.121 20.1269 20.0995 20.0636 20.0317 20.0087 19.9946 19.9879 19.9862 19.9875 19.9903 19.9934 19.9964 19.9989 20.0008 20.0021 20.003 20.0035 20.0037 20.0036 20.0034 20.0029 20.0024 20.0018 20.0012 20.0005 19.9999 19.9994 19.999 19.999 19.9994 20.0005 20.0022 20.0047 20.0076 20.0104 20.0117 20.0092 19.9997 19.979 19.9428 19.8888 19.82 19.7502 19.7116 19.7636 20 
19.2929 19.732 19.9736 20.0802 20.106 20.0916 20.0628 20.0341 20.0118 19.9972 19.9895 19.9869 19.9874 19.9895 19.9923 19.995 19.9974 19.9992 20.0005 20.0014 20.002 20.0022 20.0022 20.0021 20.0018 20.0014 20.0009 20.0004 19.9999 19.9994 19.999 19.9987 19.9987 19.9991 20.0001 20.0018 20.0043 20.0075 20.0107 20.013 20.0119 20.0043 19.9855 19.9504 19.8948 19.819 19.7331 19.665 19.6707 19.8436 
19.191 19.6413 19.9066 20.0372 20.0824 20.0812 20.0603 20.0355 20.0144 19.9998 19.9914 19.9878 19.9876 19.9891 19.9915 19.994 19.9962 19.998 19.9993 20.0002 20.0008 20.0011 20.0012 20.0012 20.001 20.0007 20.0004 20 19.9996 19.9991 19.9988 19.9985 19.9984 19.9987 19.9996 20.0011 20.0035 20.0068 20.0104 20.0135 20.0139 20.0084 19.9919 19.9587 19.903 19.8222 19.7223 19.6265 19.5858 19.691 
19.109 19.5595 19.8417 19.9933 20.0567 20.0688 20.0562 20.0359 20.0167 20.0023 19.9934 19.9891 19.9881 19.9891 19.9911 19.9933 19.9953 19.9971 19.9984 19.9993 20 20.0003 20.0005 20.0005 20.0004 20.0003 20 19.9997 19.9993 19.999 19.9986 19.9983 19.9981 19.9983 19.9989 20.0002 20.0024 20.0056 20.0095 20.0133 20.0152 20.0118 19.9983 19.9678 19.9133 19.8294 19.7182 19.597 19.511 19.546 
19.0489 19.4885 19.7807 19.9494 20.0294 20.0545 20.0507 20.0353 20.0184 20.0047 19.9956 19.9908 19.9891 19.9895 19.991 19.9929 19.9948 19.9965 19.9978 19.9987 19.9994 19.9998 20 20.0001 20.0001 20 19.9998 19.9995 19.9992 19.9988 19.9984 19.9981 19.9978 19.9977 19.9981 19.9991 20.001 20.0041 20.0081 20.0126 20.0158 20.0148 20.0043 19.9774 19.9255 19.8407 19.7209 19.5774 19.4482 19.4122 
19.0123 19.43 19.7251 19.9068 20.0015 20.0389 20.0439 20.0339 20.0198 20.0071 19.998 19.9927 19.9904 19.9903 19.9913 19.9929 19.9946 19.9961 19.9974 19.9983 19.999 19.9995 19.9997 19.9998 19.9999 19.9998 19.9996 19.9994 19.9991 19.9987 19.9983 19.9978 19.9974 19.9971 19.9971 19.9978 19.9994 20.0022 20.0063 20.0113 20.0159 20.0171 20.0101 19.9874 19.9394 19.8558 19.7303 19.5681 19.3989 19.2929 
19 19.3856 19.6763 19.8664 19.9735 20.0223 20.036 20.0316 20.0206 20.0093 20.0004 19.9948 19.992 19.9913 19.9919 19.9932 19.9946 19.996 19.9972 19.9981 19.9988 19.9992 19.9995 19.9997 19.9997 19.9997 19.9996 19.9994 19.9991 19.9987 19.9982 19.9976 19.997 19.9965 19.9962 19.9965 19.9977 20.0002 20.0042 20.0097 20.0154 20.0189 20.0155 19.9976 19.9546 19.8744 19.7463 19.5694 19.3645 19.191 
19.0123 19.3563 19.6354 19.8293 19.9461 20.0052 20.0271 20.0286 20.021 20.0113 20.0029 19.9971 19.9938 19.9926 19.9928 19.9936 19.9948 19.996 19.9971 19.998 19.9986 19.9991 19.9994 19.9996 19.9997 19.9997 19.9996 19.9994 19.9991 19.9987 19.9981 19.9974 19.9966 19.9959 19.9953 19.9952 19.996 19.9981 20.002 20.0077 20.0144 20.0202 20.0205 20.0078 19.971 19.8959 19.7686 19.5813 19.3456 19.109 
19.0489 19.3429 19.6034 19.7964 19.92 19.9879 20.0177 20.0248 20.0208 20.0129 20.0053 19.9994 19.9958 19.9941 19.9938 19.9943 19.9952 19.9962 19.9971 19.9979 19.9985 19.999 19.9993 19.9995 19.9996 19.9996 19.9996 19.9994 19.9991 19.9987 19.9981 19.9973 19.9964 19.9954 19.9945 19.994 19.9943 19.996 19.9996 20.0054 20.0131 20.0209 20.0249 20.0178 19.988 19.9201 19.7965 19.6035 19.3429 19.0489 
19.109 19.3456 19.5813 19.7685 19.8959 19.9709 20.0077 20.0204 20.02 20.0143 20.0075 20.0018 19.9979 19.9958 19.995 19.9951 19.9957 19.9964 19.9972 19.9979 19.9985 19.999 19.9993 19.9995 19.9996 19.9997 19.9996 19.9995 19.9992 19.9988 19.9981 19.9973 19.9962 19.995 19.9939 19.993 19.9929 19.9941 19.9973 20.0031 20.0114 20.0211 20.0287 20.0273 20.0053 19.9461 19.8294 19.6354 19.3563 19.0123 
19.191 19.3644 19.5694 19.7463 19.8742 19.9545 19.9975 20.0153 20.0187 20.0152 20.0094 20.004 19.9999 19.9974 19.9962 19.9959 19.9962 19.9967 19.9974 19.998 19.9985 19.9989 19.9993 19.9995 19.9997 19.9998 19.9997 19.9996 19.9994 19.9989 19.9983 19.9974 19.9962 19.9949 19.9934 19.9922 19.9916 19.9923 19.995 20.0007 20.0095 20.0208 20.0318 20.0361 20.0224 19.9735 19.8664 19.6763 19.3856 19 
19.2929 19.3989 19.568 19.7302 19.8556 19.9392 19.9872 20.0098 20.0168 20.0155 20.011 20.0059 20.0018 19.999 19.9974 19.9967 19.9967 19.997 19.9975 19.998 19.9985 19.9989 19.9993 19.9996 19.9998 19.9999 20 19.9999 19.9997 19.9993 19.9986 19.9977 19.9965 19.995 19.9933 19.9917 19.9906 19.9908 19.993 19.9983 20.0073 20.02 20.0341 20.044 20.039 20.0016 19.9068 19.7252 19.43 19.0123 
19.4122 19.4481 19.5773 19.7207 19.8405 19.9252 19.977 20.0039 20.0143 20.0153 20.012 20.0076 20.0035 20.0004 19.9985 19.9975 19.9972 19.9973 19.9976 19.9981 19.9985 19.999 19.9994 19.9997 20 20.0002 20.0003 20.0003 20.0001 19.9998 19.9992 19.9982 19.997 19.9953 19.9935 19.9915 19.99 19.9896 19.9912 19.996 20.0051 20.0187 20.0356 20.0509 20.0547 20.0295 19.9495 19.7808 19.4885 19.0489 
19.546 19.5109 19.5968 19.7179 19.829 19.9128 19.9672 19.9976 20.0111 20.0145 20.0126 20.0087 20.0048 20.0016 19.9994 19.9981 19.9976 19.9975 19.9977 19.9981 19.9986 19.9991 19.9995 20 20.0003 20.0006 20.0008 20.0009 20.0008 20.0006 20 19.9991 19.9978 19.9961 19.994 19.9918 19.9898 19.9888 19.9897 19.9939 20.0027 20.017 20.0361 20.0564 20.0689 20.0568 19.9933 19.8417 19.5595 19.109 
19.691 19.5856 19.6262 19.7219 19.8216 19.9023 19.9579 19.991 20.0073 20.0128 20.0124 20.0093 20.0056 20.0024 20 19.9986 19.9978 19.9976 19.9978 19.9982 19.9987 19.9993 19.9998 20.0004 20.0009 20.0013 20.0016 20.0018 20.0019 20.0016 20.0011 20.0003 19.999 19.9972 19.9949 19.9924 19.99 19.9884 19.9885 19.992 20.0003 20.0148 20.0358 20.0605 20.0813 20.0825 20.0373 19.9066 19.6413 19.191 
19.8436 19.6704 19.6645 19.7324 19.8182 19.8938 19.9492 19.9842 20.0029 20.0105 20.0114 20.0092 20.0059 20.0028 20.0004 19.9988 19.998 19.9977 19.9979 19.9983 19.9989 19.9996 20.0004 20.0011 20.0018 20.0023 20.0028 20.0031 20.0033 20.0031 20.0027 20.0018 20.0005 19.9987 19.9963 19.9935 19.9906 19.9883 19.9877 19.9902 19.9977 20.0121 20.0344 20.063 20.0916 20.106 20.0802 19.9736 19.732 19.2929 
20 19.7633 19.711 19.7493 19.8188 19.8874 19.9412 19.9772 19.9978 20.0073 20.0097 20.0084 20.0057 20.0028 20.0005 19.9989 19.9981 19.9979 19.9981 19.9987 19.9995 20.0004 20.0013 20.0022 20.0031 20.0038 20.0044 20.0049 20.0051 20.005 20.0046 20.0038 20.0024 20.0005 19.9979 19.9948 19.9915 19.9886 19.9871 19.9885 19.9951 20.0089 20.0319 20.0636 20.0994 20.1267 20.1209 20.0412 19.8291 19.4122 
20.1564 19.8618 19.7642 19.7719 19.8235 19.8833 19.9341 19.9702 19.9922 20.0033 20.0072 20.007 20.005 20.0025 20.0004 19.999 19.9983 19.9982 19.9987 19.9994 20.0005 20.0016 20.0027 20.0039 20.0049 20.0058 20.0066 20.0071 20.0074 20.0073 20.0069 20.006 20.0045 20.0025 19.9997 19.9963 19.9925 19.9889 19.9865 19.9868 19.9921 20.005 20.0281 20.0622 20.1043 20.144 20.1584 20.1075 19.9304 19.546 
20.309 19.9637 19.8231 19.7998 19.8321 19.8816 19.9281 19.9634 19.9863 19.9989 20.0043 20.0052 20.004 20.0022 20.0005 19.9993 19.9989 19.9991 19.9998 20.0008 20.0021 20.0035 20.0049 20.0062 20.0074 20.0084 20.0092 20.0097 20.01 20.0098 20.0093 20.0083 20.0066 20.0043 20.0013 19.9976 19.9933 19.989 19.9856 19.9847 19.9887 20.0004 20.023 20.0587 20.1062 20.1573 20.1917 20.171 20.0333 19.691 
20.454 20.0664 19.8862 19.8326 19.8447 19.8826 19.9236 19.9573 19.9807 19.9945 20.0012 20.0035 20.0033 20.0021 20.001 20.0004 20.0003 20.0008 20.0018 20.0031 20.0046 20.0062 20.0077 20.0091 20.0104 20.0114 20.0121 20.0125 20.0126 20.0122 20.0114 20.0101 20.0082 20.0056 20.0023 19.9982 19.9935 19.9885 19.9842 19.9821 19.9846 19.9948 20.0166 20.0531 20.1048 20.1662 20.2199 20.2301 20.1353 19.8436 
20.5878 20.1675 19.9522 19.8696 19.8613 19.8868 19.9215 19.9528 19.976 19.9908 19.9989 20.0024 20.0034 20.0031 20.0027 20.0025 20.0029 20.0037 20.0049 20.0064 20.008 20.0096 20.0111 20.0125 20.0136 20.0143 20.0148 20.0148 20.0145 20.0138 20.0126 20.0109 20.0086 20.0057 20.002 19.9976 19.9925 19.987 19.9819 19.9787 19.9798 19.9885 20.009 20.0455 20.1005 20.1709 20.2427 20.2835 20.2339 20 
20.7071 20.2648 20.0201 19.9107 19.8825 19.8951 19.9226 19.9509 19.9735 19.9891 19.9984 20.0032 20.0052 20.0059 20.0061 20.0064 20.007 20.008 20.0092 20.0107 20.0121 20.0135 20.0146 20.0155 20.0161 20.0164 20.0162 20.0157 20.0148 20.0135 20.0117 20.0095 20.0069 20.0036 19.9997 19.9951 19.9898 19.9841 19.9786 19.9746 19.9745 19.9816 20.0007 20.0367 20.0938 20.1716 20.2597 20.3302 20.3269 20.1564 
20.809 20.3563 20.0889 19.9561 19.909 19.9088 19.9288 19.9534 19.975 19.9908 20.0011 20.0069 20.0099 20.0113 20.0119 20.0123 20.0129 20.0136 20.0144 20.0152 20.016 20.0166 20.0169 20.017 20.0167 20.016 20.0149 20.0136 20.0119 20.0099 20.0076 20.005 20.002 19.9987 19.9949 19.9905 19.9854 19.9799 19.9745 19.9703 19.9695 19.9754 19.993 20.028 20.0861 20.1695 20.2718 20.3698 20.4125 20.309 
20.891 20.4405 20.1581 20.0062 19.9423 19.9297 19.9419 19.9624 19.9823 19.9978 20.0084 20.0148 20.0182 20.0196 20.02 20.0199 20.0197 20.0194 20.019 20.0185 20.0179 20.017 20.0159 20.0145 20.0128 20.0109 20.0087 20.0064 20.0039 20.0013 19.9987 19.9961 19.9933 19.9905 19.9874 19.9839 19.9799 19.9755 19.971 19.9674 19.9666 19.9719 19.9882 20.0218 20.0796 20.1665 20.28 20.4026 20.4891 20.454 
20.9511 20.516 20.2277 20.0621 19.984 19.9601 19.9644 19.9801 19.9973 20.0115 20.0214 20.0272 20.0298 20.0302 20.0292 20.0275 20.0253 20.0228 20.0202 20.0174 20.0145 20.0114 20.0081 20.0048 20.0015 19.9982 19.995 19.9919 19.9891 19.9865 19.9844 19.9825 19.981 19.9797 19.9784 19.977 19.9753 19.9732 19.9709 19.969 19.9692 19.9745 19.9897 20.0215 20.0778 20.1656 20.2867 20.4293 20.5557 20.5878 
20.9877 20.582 20.2977 20.1246 20.0358 20.0018 19.9981 20.0079 20.021 20.0322 20.0395 20.0428 20.0428 20.0403 20.0362 20.031 20.0253 20.0192 20.013 20.0068 20.0007 19.9948 19.9891 19.9838 19.979 19.9748 19.9712 19.9684 19.9664 19.9653 19.9651 19.9657 19.9671 19.9691 19.9714 19.9739 19.9761 19.9778 19.979 19.98 19.9822 19.9882 20.0025 20.0318 20.0848 20.1706 20.2945 20.4512 20.6117 20.7071 
21 20.6377 20.3679 20.1942 20.0983 20.0553 20.043 20.0452 20.0517 20.0571 20.0589 20.0569 20.0515 20.0436 20.0339 20.0233 20.0121 20.001 19.99 19.9796 19.97 19.9612 19.9536 19.9472 19.9421 19.9386 19.9366 19.9362 19.9375 19.9403 19.9446 19.9503 19.9572 19.965 19.9733 19.9817 19.9897 19.9969 20.0029 20.0078 20.0126 20.0194 20.0324 20.0579 20.1052 20.1847 20.3058 20.4694 20.6561 20.809 
20.9877 20.6816 20.4364 20.2688 20.169 20.1175 20.095 20.0867 20.0829 20.0784 20.0707 20.0595 20.0452 20.0287 20.011 19.9927 19.9747 19.9575 19.9416 19.9273 19.9151 19.905 19.8975 19.8925 19.8903 19.8908 19.8941 19.9 19.9085 19.9192 19.932 19.9465 19.9622 19.9788 19.9956 20.012 20.0274 20.041 20.0523 20.061 20.0678 20.0744 20.0842 20.1034 20.1411 20.2091 20.3202 20.4822 20.6868 20.891 
20.9511 20.7106 20.4979 20.3414 20.2395 20.1784 20.1424 20.119 20.0998 20.0802 20.0581 20.0333 20.0064 19.9785 19.9506 19.9238 19.8988 19.8765 19.8574 19.842 19.8307 19.8236 19.821 19.8229 19.8292 19.8398 19.8543 19.8725 19.8939 19.9179 19.944 19.9715 19.9997 20.0278 20.055 20.0804 20.1031 20.1224 20.1373 20.1476 20.1534 20.1561 20.1586 20.1666 20.1889 20.2382 20.3306 20.4817 20.6968 20.9511 
20.891 20.7173 20.5397 20.3956 20.2905 20.2163 20.1617 20.117 20.0761 20.0356 19.9941 19.952 19.9102 19.8699 19.8325 19.799 19.7704 19.7476 19.7312 19.7215 19.7188 19.7231 19.7344 19.7522 19.7762 19.8057 19.84 19.8783 19.9197 19.9631 20.0074 20.0516 20.0944 20.135 20.172 20.2044 20.2313 20.2516 20.2646 20.2699 20.2677 20.2589 20.2463 20.2348 20.2329 20.2537 20.3164 20.4457 20.6672 20.9877 
20.809 20.6852 20.5355 20.3992 20.2859 20.1924 20.1121 20.0396 19.9711 19.9052 19.8419 19.782 19.7269 19.6781 19.6369 19.6045 19.5819 19.5697 19.5681 19.5773 19.5969 19.6266 19.6655 19.7127 19.767 19.827 19.8913 19.9584 20.0265 20.0939 20.1591 20.2204 20.2763 20.3253 20.3662 20.3978 20.4193 20.4298 20.4289 20.4166 20.3931 20.3599 20.3193 20.2759 20.2374 20.2163 20.2339 20.3256 20.5492 21 
20.7071 20.5776 20.4363 20.2966 20.1661 20.0455 19.9332 19.8282 19.7302 19.6399 19.5587 19.4881 19.4298 19.3854 19.3559 19.3423 19.3448 19.3635 19.398 19.4473 19.5102 19.5853 19.6705 19.7639 19.8632 19.9658 20.0693 20.1711 20.2687 20.3597 20.4418 20.5131 20.5717 20.6163 20.6456 20.6589 20.6558 20.6362 20.6005 20.5495 20.4845 20.4075 20.3212 20.2296 20.139 20.0595 20.0095 20.0283 20.213 20.9877 
20.5878 20.309 20.1564 20 19.8436 19.691 19.546 19.4122 19.2929 19.191 19.109 19.0489 19.0123 19 19.0123 19.0489 19.109 19.191 19.2929 19.4122 19.546 19.691 19.8436 20 20.1564 20.309 20.454 20.5878 20.7071 20.809 20.891 20.9511 20.9877 21 20.9877 20.9511 20.891 20.809 20.7071 20.5878 20.454 20.309 20.1564 20 19.8436 19.691 19.546 19.4122 19.2929 20.9511 
