# vtk DataFile Version 3.0
Temperature distribution on a 2D grid
ASCII

DATASET STRUCTURED_POINTS
DIMENSIONS 50 50 1
ORIGIN 0.0 0.0 0.0
SPACING 0.01 0.01 1.0

POINT_DATA 2500
SCALARS temperature double
LOOKUP_TABLE default
20.9995 19.0079 19.0397 19.0952 19.1729 19.271 19.3871 19.5182 19.6613 19.8126 19.9686 20.1253 20.279 20.4258 20.5621 20.6845 20.7902 20.8763 20.9409 20.9823 20.9995 20.9921 20.9603 20.9048 20.8271 20.729 20.6129 20.4818 20.3387 20.1874 20.0314 19.8747 19.721 19.5742 19.4379 19.3155 19.2098 19.1237 19.0591 19.0177 19.0005 19.0079 19.0397 19.0952 19.1729 19.271 19.3871 19.5182 19.6613 19.9686 
20.9823 20.0398 19.7585 19.6744 19.681 19.7347 19.8147 19.9092 20.0108 20.1142 20.2155 20.3115 20.3996 20.4776 20.5435 20.5958 20.6333 20.6552 20.6609 20.6503 20.6237 20.5818 20.5255 20.4564 20.376 20.2864 20.1897 20.0884 19.9849 19.8818 19.7817 19.687 19.6 19.5229 19.4576 19.4055 19.3681 19.3461 19.3401 19.3504 19.377 19.4199 19.479 19.5543 19.6458 19.7524 19.8703 19.9895 20.0864 20.1253 
20.9409 20.4435 20.1671 20.0339 19.9898 19.999 20.0385 20.0939 20.1555 20.2173 20.275 20.326 20.3686 20.4015 20.424 20.4357 20.4364 20.4262 20.4054 20.3747 20.3348 20.2866 20.2314 20.1705 20.1055 20.0379 19.9694 19.9017 19.8365 19.7753 19.7197 19.6711 19.6307 19.5994 19.578 19.5669 19.5664 19.5763 19.5965 19.6266 19.6664 19.7162 19.7766 19.8491 19.9354 20.0363 20.1481 20.2568 20.3259 20.279 
20.8763 20.5935 20.3682 20.2241 20.149 20.1232 20.1287 20.1515 20.1818 20.213 20.2409 20.2632 20.2784 20.2859 20.2858 20.2781 20.2631 20.2415 20.2139 20.181 20.1436 20.1027 20.0594 20.0146 19.9695 19.9252 19.8828 19.8433 19.8078 19.777 19.7519 19.733 19.7207 19.7154 19.7171 19.7257 19.7409 19.7621 19.7889 19.8208 19.8577 19.9003 19.9504 20.0109 20.0858 20.1781 20.2862 20.3964 20.4701 20.4258 
20.7902 20.6293 20.4501 20.3078 20.2147 20.1642 20.1443 20.1433 20.1518 20.1633 20.1734 20.1797 20.1811 20.1772 20.1682 20.1543 20.1362 20.1145 20.0899 20.063 20.0345 20.0053 19.976 19.9473 19.92 19.8947 19.8721 19.8527 19.8369 19.8253 19.8182 19.8156 19.8177 19.8244 19.8355 19.8505 19.869 19.8902 19.9137 19.939 19.9663 19.9968 20.0333 20.0801 20.1432 20.2284 20.3373 20.4597 20.5603 20.5621 
20.6845 20.6085 20.4682 20.3332 20.2307 20.1641 20.1269 20.1099 20.1046 20.1046 20.1054 20.1046 20.1009 20.0939 20.0837 20.0708 20.0556 20.0388 20.0208 20.0023 19.9837 19.9656 19.9483 19.9325 19.9183 19.9062 19.8965 19.8894 19.8851 19.8838 19.8855 19.8902 19.8978 19.908 19.9205 19.9349 19.9506 19.9669 19.9834 19.9997 20.0162 20.0346 20.0582 20.0926 20.1456 20.2258 20.3386 20.4787 20.6172 20.6845 
20.5621 20.5571 20.4535 20.3304 20.2252 20.1493 20.1011 20.0741 20.0606 20.0546 20.0515 20.0487 20.0446 20.0387 20.0311 20.0219 20.0117 20.0008 19.9898 19.9789 19.9685 19.959 19.9505 19.9433 19.9375 19.9334 19.9309 19.9303 19.9315 19.9345 19.9393 19.9458 19.9539 19.9632 19.9735 19.9844 19.9953 20.0057 20.015 20.023 20.0302 20.0385 20.0515 20.0756 20.1203 20.1965 20.3136 20.4722 20.6511 20.7902 
20.4258 20.4873 20.4219 20.3154 20.2132 20.1336 20.0792 20.0462 20.0281 20.0192 20.0151 20.0126 20.0101 20.0069 20.0028 19.9979 19.9925 19.9869 19.9814 19.9763 19.9717 19.9679 19.9649 19.9628 19.9617 19.9615 19.9625 19.9644 19.9674 19.9713 19.9761 19.9817 19.988 19.9948 20.0019 20.0088 20.0152 20.0203 20.0239 20.0255 20.0257 20.0263 20.0311 20.0469 20.0843 20.1563 20.2762 20.4506 20.6669 20.8763 
20.279 20.4055 20.3807 20.2955 20.2013 20.1222 20.0652 20.0289 20.0082 19.998 19.9938 19.9925 19.9921 19.9916 19.9908 19.9894 19.9878 19.9861 19.9844 19.983 19.982 19.9814 19.9813 19.9818 19.9827 19.9841 19.986 19.9883 19.9911 19.9942 19.9978 20.0016 20.0056 20.0098 20.0138 20.0175 20.0203 20.0218 20.0214 20.0188 20.0143 20.0094 20.0079 20.0168 20.0471 20.1138 20.2336 20.419 20.6669 20.9409 
20.1253 20.315 20.3332 20.273 20.1909 20.1158 20.0588 20.0209 19.9988 19.9878 19.9837 19.9834 19.9847 19.9863 19.9879 19.9891 19.9899 19.9907 19.9913 19.992 19.9928 19.9938 19.995 19.9963 19.9977 19.9993 20.0009 20.0027 20.0045 20.0064 20.0083 20.0103 20.0124 20.0144 20.0163 20.0178 20.0184 20.0177 20.0151 20.01 20.0025 19.9939 19.9875 19.9902 20.0133 20.073 20.1891 20.38 20.652 20.9823 
19.9686 20.2182 20.2803 20.248 20.1812 20.1129 20.0577 20.0195 19.9965 19.9849 19.9807 19.9809 19.9832 19.9862 19.9892 19.9919 19.9943 19.9963 19.9981 19.9998 20.0013 20.0028 20.0042 20.0055 20.0067 20.0078 20.0088 20.0096 20.0104 20.0111 20.0117 20.0124 20.013 20.0137 20.0143 20.0146 20.0141 20.0125 20.0088 20.0026 19.9935 19.9823 19.972 19.9689 19.9843 20.0353 20.1441 20.3347 20.6226 20.9995 
19.8126 20.1172 20.2227 20.2201 20.1708 20.1113 20.0596 20.022 19.9985 19.9862 19.9816 19.9818 19.9844 19.988 19.9917 19.9952 19.9982 20.0008 20.0031 20.005 20.0066 20.008 20.0092 20.0102 20.0109 20.0114 20.0117 20.0117 20.0117 20.0115 20.0113 20.011 20.0109 20.0109 20.0109 20.0107 20.01 20.0081 20.0044 19.9979 19.988 19.9751 19.9615 19.9529 19.9602 20.0007 20.099 20.2835 20.5792 20.9921 
19.6613 20.014 20.161 20.1885 20.1584 20.1094 20.0624 20.0262 20.0024 19.9894 19.9841 19.9839 19.9864 19.99 19.9939 19.9976 20.0009 20.0036 20.0058 20.0077 20.0091 20.0102 20.011 20.0116 20.0118 20.0118 20.0115 20.0111 20.0105 20.0098 20.0091 20.0084 20.008 20.0077 20.0076 20.0074 20.0069 20.0054 20.0021 19.9958 19.9858 19.9718 19.9554 19.9415 19.9403 19.9691 20.0537 20.2271 20.5223 20.9603 
19.5182 19.9108 20.0959 20.1532 20.1431 20.1058 20.0646 20.0305 20.0069 19.9932 19.9871 19.9861 19.9881 19.9915 19.9952 19.9988 20.002 20.0046 20.0067 20.0083 20.0095 20.0103 20.0108 20.0109 20.0108 20.0105 20.0099 20.0091 20.0083 20.0074 20.0065 20.0058 20.0053 20.005 20.0051 20.0052 20.0052 20.0043 20.0016 19.9959 19.9861 19.9713 19.9525 19.9336 19.9238 19.94 20.0087 20.1661 20.4532 20.9048 
19.3871 19.8099 20.0288 20.1145 20.1246 20.0999 20.0654 20.0341 20.011 19.9967 19.9898 19.988 19.9893 19.9922 19.9956 19.999 20.0019 20.0043 20.0062 20.0076 20.0085 20.0091 20.0093 20.0093 20.009 20.0084 20.0077 20.0069 20.0059 20.005 20.0042 20.0035 20.0031 20.0031 20.0034 20.0039 20.0044 20.0042 20.0023 19.9973 19.9879 19.9728 19.9521 19.9286 19.9103 19.9133 19.9641 20.1015 20.3732 20.8271 
19.271 19.7137 19.961 20.073 20.103 20.0914 20.0643 20.0364 20.0143 19.9998 19.9921 19.9894 19.99 19.9923 19.9953 19.9983 20.001 20.0032 20.0049 20.0062 20.0069 20.0074 20.0075 20.0073 20.0069 20.0063 20.0056 20.0048 20.0039 20.0031 20.0024 20.0018 20.0016 20.0018 20.0024 20.0033 20.0043 20.0047 20.0035 19.9995 19.9907 19.9756 19.9533 19.9258 19.8995 19.8891 19.9208 20.0347 20.2841 20.729 
19.1729 19.6245 19.894 20.0294 20.0786 20.0803 20.0612 20.0374 20.0168 20.0024 19.994 19.9905 19.9903 19.9921 19.9946 19.9973 19.9998 20.0018 20.0034 20.0045 20.0052 20.0055 20.0056 20.0054 20.005 20.0045 20.0038 20.0031 20.0023 20.0016 20.001 20.0007 20.0006 20.001 20.0018 20.003 20.0043 20.0053 20.0049 20.0017 19.9938 19.9789 19.9557 19.9248 19.8911 19.8676 19.8794 19.9669 20.1879 20.6129 
19.0952 19.5446 19.8295 19.985 20.052 20.0669 20.0563 20.0371 20.0184 20.0044 19.9956 19.9915 19.9906 19.9917 19.9938 19.9962 19.9984 20.0003 20.0018 20.0028 20.0035 20.0038 20.0039 20.0037 20.0034 20.0029 20.0024 20.0018 20.0012 20.0006 20.0001 19.9999 19.9999 20.0004 20.0013 20.0027 20.0044 20.0058 20.0062 20.0038 19.9968 19.9826 19.959 19.9254 19.8852 19.8492 19.8408 19.8999 20.0871 20.4818 
19.0397 19.4757 19.7691 19.9407 20.0239 20.0516 20.0496 20.0355 20.0193 20.006 19.9971 19.9924 19.9909 19.9914 19.9931 19.9952 19.9972 19.999 20.0004 20.0014 20.002 20.0024 20.0025 20.0024 20.0022 20.0018 20.0014 20.0009 20.0004 19.9999 19.9995 19.9993 19.9994 19.9999 20.0009 20.0024 20.0042 20.0061 20.007 20.0056 19.9997 19.9864 19.963 19.9276 19.8818 19.8343 19.8059 19.8353 19.9841 20.3387 
19.0079 19.4197 19.7143 19.8978 19.9951 20.0348 20.0416 20.0328 20.0195 20.0073 19.9985 19.9934 19.9913 19.9913 19.9926 19.9944 19.9962 19.9978 19.9992 20.0002 20.0009 20.0012 20.0014 20.0014 20.0012 20.001 20.0006 20.0002 19.9998 19.9994 19.9991 19.9989 19.999 19.9994 20.0004 20.0018 20.0038 20.0059 20.0074 20.0069 20.0022 19.9902 19.9675 19.9312 19.881 19.8232 19.7756 19.7745 19.8814 20.1874 
19.0005 19.378 19.6664 19.8573 19.9662 20.0171 20.0323 20.0292 20.019 20.0082 19.9998 19.9945 19.992 19.9915 19.9924 19.9938 19.9955 19.997 19.9983 19.9993 20 20.0004 20.0006 20.0007 20.0006 20.0004 20.0002 19.9998 19.9995 19.9991 19.9988 19.9986 19.9986 19.9989 19.9997 20.0011 20.003 20.0053 20.0073 20.0077 20.0043 19.9939 19.9725 19.9362 19.8829 19.8162 19.7506 19.7192 19.7816 20.0314 
19.0177 19.3516 19.6267 19.8202 19.9381 19.9988 20.0222 20.0248 20.0181 20.009 20.0011 19.9957 19.9929 19.992 19.9925 19.9936 19.9951 19.9965 19.9977 19.9986 19.9993 19.9998 20.0001 20.0002 20.0002 20 19.9998 19.9996 19.9992 19.9989 19.9986 19.9983 19.9982 19.9983 19.9989 20.0001 20.002 20.0044 20.0068 20.0081 20.0061 19.9975 19.9779 19.9425 19.8874 19.8136 19.7317 19.6706 19.6871 19.8747 
19.0591 19.3411 19.5962 19.7875 19.9115 19.9805 20.0115 20.0197 20.0166 20.0095 20.0024 19.9972 19.994 19.9928 19.9929 19.9937 19.9949 19.9962 19.9973 19.9982 19.9989 19.9994 19.9997 19.9998 19.9999 19.9998 19.9996 19.9994 19.9991 19.9987 19.9983 19.998 19.9977 19.9977 19.9981 19.9991 20.0008 20.0032 20.006 20.008 20.0075 20.0009 19.9837 19.9501 19.8946 19.8154 19.7192 19.6302 19.6003 19.721 
19.1237 19.3468 19.5756 19.7601 19.887 19.9626 20.0004 20.0142 20.0148 20.0098 20.0037 19.9987 19.9954 19.9938 19.9935 19.994 19.995 19.9961 19.9971 19.9979 19.9986 19.9991 19.9994 19.9996 19.9997 19.9997 19.9995 19.9993 19.999 19.9986 19.9982 19.9977 19.9973 19.997 19.9972 19.9979 19.9994 20.0018 20.0048 20.0077 20.0086 20.0042 19.9898 19.9587 19.9043 19.8216 19.7136 19.5987 19.5232 19.5742 
19.2098 19.3686 19.5654 19.7385 19.8653 19.9457 19.9894 20.0082 20.0125 20.0098 20.0049 20.0002 19.9969 19.995 19.9944 19.9946 19.9953 19.9961 19.997 19.9978 19.9985 19.9989 19.9993 19.9995 19.9996 19.9996 19.9995 19.9993 19.999 19.9986 19.998 19.9975 19.9969 19.9964 19.9963 19.9967 19.998 20.0002 20.0035 20.007 20.0093 20.0073 19.996 19.9684 19.9162 19.8322 19.715 19.5772 19.4579 19.4379 
19.3155 19.406 19.5659 19.7233 19.8468 19.93 19.9785 20.002 20.01 20.0096 20.0059 20.0018 19.9984 19.9963 19.9954 19.9952 19.9957 19.9963 19.9971 19.9978 19.9984 19.9989 19.9992 19.9994 19.9996 19.9996 19.9995 19.9993 19.999 19.9986 19.998 19.9973 19.9966 19.9959 19.9955 19.9956 19.9966 19.9987 20.002 20.0062 20.0098 20.0101 20.0022 19.9787 19.9301 19.8469 19.7234 19.566 19.406 19.3155 
19.4379 19.4579 19.5771 19.7149 19.8321 19.9161 19.9682 19.9958 20.0071 20.0091 20.0068 20.0032 20 19.9977 19.9964 19.996 19.9962 19.9966 19.9972 19.9978 19.9984 19.9988 19.9992 19.9994 19.9996 19.9996 19.9996 19.9994 19.9991 19.9986 19.998 19.9973 19.9964 19.9955 19.9948 19.9946 19.9953 19.9971 20.0005 20.0051 20.0101 20.0127 20.0084 19.9895 19.9458 19.8653 19.7385 19.5654 19.3686 19.2098 
19.5742 19.5232 19.5987 19.7135 19.8215 19.9041 19.9585 19.9895 20.0039 20.0082 20.0073 20.0045 20.0014 19.999 19.9975 19.9968 19.9967 19.997 19.9974 19.9979 19.9984 19.9988 19.9992 19.9995 19.9997 19.9997 19.9997 19.9996 19.9993 19.9989 19.9982 19.9974 19.9964 19.9953 19.9944 19.9938 19.9941 19.9957 19.999 20.004 20.01 20.015 20.0143 20.0006 19.9627 19.8871 19.7601 19.5756 19.3468 19.1237 
19.721 19.6002 19.63 19.7191 19.8151 19.8943 19.9497 19.9833 20.0005 20.007 20.0076 20.0055 20.0027 20.0003 19.9986 19.9976 19.9973 19.9973 19.9976 19.998 19.9985 19.9989 19.9993 19.9996 19.9998 20 20 19.9999 19.9997 19.9992 19.9986 19.9977 19.9966 19.9953 19.9941 19.9933 19.9932 19.9944 19.9975 20.0028 20.0098 20.0169 20.0199 20.0116 19.9806 19.9116 19.7876 19.5962 19.3411 19.0591 
19.8747 19.687 19.6705 19.7314 19.8132 19.887 19.942 19.9774 19.9969 20.0054 20.0074 20.0062 20.0037 20.0013 19.9995 19.9983 19.9978 19.9976 19.9978 19.9982 19.9986 19.999 19.9995 19.9998 20.0001 20.0003 20.0004 20.0004 20.0002 19.9998 19.9991 19.9982 19.997 19.9956 19.9942 19.993 19.9925 19.9934 19.9962 20.0015 20.0093 20.0183 20.025 20.0224 19.9989 19.9382 19.8203 19.6268 19.3516 19.0177 
20.0314 19.7815 19.7189 19.7503 19.8157 19.8823 19.9355 19.9718 19.9931 20.0034 20.0068 20.0064 20.0044 20.0021 20.0002 19.9989 19.9982 19.9979 19.998 19.9984 19.9988 19.9993 19.9997 20.0002 20.0006 20.0009 20.0011 20.0011 20.001 20.0006 20 19.999 19.9978 19.9963 19.9946 19.9931 19.9922 19.9926 19.995 20.0003 20.0086 20.0193 20.0294 20.0325 20.0172 19.9663 19.8573 19.6664 19.378 19.0005 
20.1874 19.8813 19.7741 19.7751 19.8225 19.8802 19.9302 19.9665 19.9891 20.001 20.0057 20.0062 20.0047 20.0026 20.0008 19.9994 19.9986 19.9982 19.9983 19.9986 19.9991 19.9996 20.0002 20.0008 20.0013 20.0017 20.002 20.0021 20.002 20.0017 20.0011 20.0002 19.9988 19.9972 19.9953 19.9935 19.9922 19.992 19.994 19.999 20.0077 20.0198 20.033 20.0417 20.0349 19.9951 19.8978 19.7143 19.4197 19.0079 
20.3387 19.9839 19.8348 19.8052 19.8334 19.8807 19.9263 19.9616 19.985 19.9982 20.0041 20.0055 20.0046 20.0028 20.0011 19.9997 19.9989 19.9986 19.9986 19.999 19.9996 20.0002 20.0009 20.0016 20.0023 20.0028 20.0032 20.0034 20.0034 20.0032 20.0026 20.0016 20.0002 19.9984 19.9963 19.9941 19.9923 19.9917 19.993 19.9976 20.0064 20.0195 20.0356 20.0497 20.0516 20.0239 19.9407 19.7691 19.4757 19.0397 
20.4818 20.0868 19.8993 19.8399 19.8481 19.8838 19.9238 19.9573 19.9808 19.995 20.002 20.0043 20.0041 20.0028 20.0012 20 19.9993 19.999 19.9992 19.9997 20.0004 20.0012 20.0021 20.0029 20.0037 20.0043 20.0048 20.0051 20.0051 20.0049 20.0043 20.0032 20.0018 19.9998 19.9974 19.9949 19.9927 19.9914 19.9921 19.9961 20.0046 20.0186 20.0371 20.0562 20.0668 20.0519 19.9848 19.8294 19.5445 19.0952 
20.6129 20.1876 19.9662 19.8783 19.8662 19.8894 19.9229 19.9537 19.9768 19.9917 19.9996 20.0029 20.0034 20.0026 20.0014 20.0004 19.9999 19.9998 20.0001 20.0007 20.0016 20.0026 20.0036 20.0046 20.0054 20.0062 20.0067 20.007 20.0071 20.0068 20.0061 20.005 20.0033 20.0012 19.9986 19.9957 19.9929 19.991 19.991 19.9942 20.0024 20.0167 20.0372 20.061 20.08 20.0783 20.0292 19.8939 19.6245 19.1729 
20.729 20.2836 20.0338 19.9196 19.8876 19.8977 19.9238 19.9512 19.9734 19.9885 19.9973 20.0015 20.0028 20.0026 20.0019 20.0013 20.0009 20.0011 20.0016 20.0024 20.0034 20.0045 20.0056 20.0066 20.0075 20.0083 20.0088 20.0091 20.009 20.0086 20.0077 20.0064 20.0046 20.0022 19.9993 19.9961 19.9928 19.9903 19.9895 19.992 19.9995 20.0139 20.0359 20.0638 20.0909 20.1026 20.0726 19.9608 19.7136 19.271 
20.8271 20.3728 20.1008 19.9631 19.9119 19.9087 19.9268 19.9502 19.9709 19.986 19.9955 20.0006 20.0027 20.0032 20.003 20.0028 20.0027 20.003 20.0037 20.0046 20.0056 20.0068 20.0079 20.0089 20.0097 20.0103 20.0107 20.0107 20.0105 20.0098 20.0088 20.0072 20.0052 20.0025 19.9994 19.9958 19.9921 19.989 19.9875 19.9892 19.996 20.0103 20.0334 20.0648 20.0994 20.1242 20.1143 20.0287 19.8098 19.3871 
20.9048 20.453 20.1657 20.0081 19.9393 19.9229 19.9327 19.9515 19.9703 19.9851 19.995 20.0009 20.0038 20.0049 20.0052 20.0052 20.0054 20.0058 20.0064 20.0073 20.0082 20.0092 20.0101 20.0108 20.0113 20.0116 20.0117 20.0114 20.0108 20.0098 20.0085 20.0067 20.0044 20.0016 19.9983 19.9945 19.9906 19.9871 19.985 19.986 19.9921 20.006 20.0298 20.0642 20.1056 20.1431 20.1533 20.0961 19.9108 19.5182 
20.9603 20.5226 20.2275 20.0543 19.9697 19.941 19.9422 19.9561 19.9725 19.9866 19.9967 20.003 20.0064 20.008 20.0086 20.0087 20.0088 20.009 20.0094 20.0099 20.0104 20.0109 20.0113 20.0115 20.0115 20.0112 20.0108 20.01 20.009 20.0077 20.0061 20.0041 20.0018 19.999 19.9957 19.992 19.9882 19.9846 19.9824 19.9829 19.9885 20.002 20.0262 20.0628 20.1101 20.1593 20.1895 20.1618 20.0144 19.6613 
20.9921 20.5802 20.2854 20.1016 20.0039 19.9637 19.9566 19.9652 19.9788 19.9915 20.0012 20.0076 20.0111 20.0127 20.0131 20.0129 20.0125 20.012 20.0116 20.0112 20.0109 20.0105 20.01 20.0094 20.0086 20.0077 20.0066 20.0054 20.004 20.0025 20.0009 19.999 19.9969 19.9946 19.9918 19.9888 19.9855 19.9825 19.9805 19.981 19.9864 19.9995 20.0238 20.0621 20.1142 20.1738 20.2228 20.2248 20.1183 19.8126 
20.9995 20.6248 20.3388 20.1499 20.0422 19.992 19.9769 19.98 19.9899 20.0006 20.0091 20.0147 20.0175 20.0183 20.0177 20.0164 20.0147 20.0129 20.011 20.0092 20.0075 20.0058 20.0041 20.0024 20.0008 19.9992 19.9976 19.9962 19.9948 19.9936 19.9925 19.9914 19.9903 19.9891 19.9877 19.986 19.9841 19.9824 19.9814 19.9826 19.988 20.0009 20.0251 20.0641 20.1196 20.1878 20.2537 20.2845 20.2205 19.9686 
20.9823 20.6558 20.3874 20.1993 20.0851 20.0266 20.0038 20.0007 20.0062 20.0136 20.0196 20.023 20.0238 20.0225 20.0199 20.0164 20.0124 20.0084 20.0044 20.0006 19.997 19.9937 19.9907 19.9881 19.9858 19.984 19.9826 19.9817 19.9813 19.9813 19.9817 19.9825 19.9835 19.9846 19.9857 19.9865 19.9871 19.9875 19.9883 19.9907 19.9967 20.0095 20.0329 20.0716 20.1287 20.2029 20.283 20.3404 20.3188 20.1253 
20.9409 20.6727 20.4301 20.2489 20.1319 20.0666 20.0363 20.0262 20.0257 20.028 20.0296 20.029 20.026 20.0211 20.0149 20.0079 20.0007 19.9936 19.9869 19.9808 19.9754 19.9708 19.967 19.9642 19.9623 19.9615 19.9616 19.9627 19.9648 19.9678 19.9715 19.9759 19.9807 19.9857 19.9906 19.9952 19.9993 20.0028 20.0061 20.0101 20.0167 20.0288 20.0507 20.0873 20.1435 20.2203 20.3108 20.3913 20.4108 20.279 
20.8763 20.6745 20.4651 20.2961 20.1796 20.1087 20.0704 20.0519 20.0433 20.0381 20.0327 20.0257 20.0169 20.0065 19.9952 19.9837 19.9726 19.9622 19.9529 19.945 19.9387 19.9341 19.9312 19.9301 19.9308 19.9333 19.9375 19.9432 19.9505 19.9589 19.9684 19.9785 19.9891 19.9997 20.01 20.0194 20.0277 20.0347 20.0404 20.0457 20.052 20.0622 20.0806 20.1126 20.1642 20.2393 20.3352 20.4346 20.4932 20.4258 
20.7902 20.6592 20.4878 20.3349 20.2208 20.1446 20.0972 20.0679 20.0483 20.0326 20.0175 20.0017 19.9849 19.9676 19.9506 19.9344 19.9197 19.9071 19.897 19.8895 19.885 19.8834 19.8848 19.8892 19.8964 19.9061 19.9183 19.9325 19.9483 19.9655 19.9836 20.002 20.0203 20.0379 20.0542 20.0686 20.0807 20.0901 20.0969 20.1013 20.105 20.1104 20.1217 20.1449 20.1869 20.2544 20.3497 20.463 20.5598 20.5621 
20.6845 20.6219 20.4886 20.3524 20.2408 20.1583 20.0995 20.0567 20.023 19.9939 19.9666 19.9403 19.9148 19.8908 19.869 19.8502 19.8349 19.8238 19.8171 19.8151 19.8178 19.825 19.8367 19.8525 19.872 19.8947 19.92 19.9473 19.976 20.0053 20.0345 20.0628 20.0895 20.1138 20.135 20.1525 20.1656 20.1739 20.1774 20.1765 20.1724 20.1675 20.166 20.1739 20.1993 20.2516 20.3387 20.461 20.5979 20.6845 
20.5621 20.5526 20.4494 20.3261 20.2143 20.1228 20.05 19.991 19.9411 19.8972 19.8575 19.8216 19.7897 19.7626 19.7409 19.7255 19.7167 19.7149 19.7202 19.7326 19.7516 19.7768 19.8076 19.8432 19.8827 19.9252 19.9695 20.0146 20.0594 20.1027 20.1435 20.1808 20.2136 20.241 20.2622 20.2766 20.2837 20.2832 20.2753 20.2603 20.2397 20.2159 20.1929 20.1768 20.1763 20.2034 20.2724 20.3972 20.5814 20.7902 
20.4258 20.4311 20.3386 20.2184 20.1016 19.9985 19.9102 19.8346 19.7696 19.7136 19.6661 19.627 19.597 19.5766 19.5664 19.5668 19.5777 19.5991 19.6304 19.6709 19.7195 19.7751 19.8364 19.9016 19.9694 20.0379 20.1055 20.1705 20.2314 20.2866 20.3347 20.3746 20.4053 20.4258 20.4357 20.4347 20.4226 20.3996 20.3664 20.3239 20.274 20.2191 20.1633 20.1125 20.0752 20.0646 20.1006 20.2142 20.4511 20.8763 
20.279 20.2154 20.1032 19.9738 19.8478 19.7333 19.6327 19.5467 19.4752 19.4184 19.3767 19.3506 19.3404 19.3462 19.3681 19.4055 19.4574 19.5228 19.5999 19.6869 19.7816 19.8818 19.9849 20.0884 20.1897 20.2864 20.376 20.4564 20.5256 20.5818 20.6237 20.6503 20.6608 20.655 20.633 20.5953 20.5427 20.4766 20.3984 20.3104 20.2149 20.1151 20.0149 19.9193 19.8354 19.7743 19.7551 19.8184 20.0643 20.9409 
20.1253 19.8126 19.6613 19.5182 19.3871 19.271 19.1729 19.0952 19.0397 19.0079 19.0005 19.0177 19.0591 19.1237 19.2098 19.3155 19.4379 19.5742 19.721 19.8747 20.0314 20.1874 20.3387 20.4818 20.6129 20.729 20.8271 20.9048 20.9603 20.9921 20.9995 20.9823 20.9409 20.8763 20.7902 20.6845 20.5621 20.4258 20.279 20.1253 19.9686 19.8126 19.6613 19.5182 19.3871 19.271 19.1729 19.0952 19.0397 20.9823 
