# vtk DataFile Version 3.0
Temperature distribution on a 2D grid
ASCII

DATASET STRUCTURED_POINTS
DIMENSIONS 50 50 1
ORIGIN 0.0 0.0 0.0
SPACING 0.01 0.01 1.0

POINT_DATA 2500
SCALARS temperature double
LOOKUP_TABLE default
19.1237 20.9409 20.9823 20.9995 20.9921 20.9603 20.9048 20.8271 20.729 20.6129 20.4818 20.3387 20.1874 20.0314 19.8747 19.721 19.5742 19.4379 19.3155 19.2098 19.1237 19.0591 19.0177 19.0005 19.0079 19.0397 19.0952 19.1729 19.271 19.3871 19.5182 19.6613 19.8126 19.9686 20.1253 20.279 20.4258 20.5621 20.6845 20.7902 20.8763 20.9409 20.9823 20.9995 20.9921 20.9603 20.9048 20.8271 20.729 20.4818 
19.2098 20.0534 20.3435 20.4632 20.498 20.4834 20.4367 20.368 20.284 20.1896 20.089 19.9856 19.8825 19.7824 19.6878 19.6011 19.5243 19.4594 19.4079 19.371 19.3496 19.3442 19.355 19.3816 19.4235 19.4796 19.5486 19.6286 19.7178 19.814 19.9148 20.0176 20.1201 20.2197 20.314 20.4006 20.4774 20.5426 20.5945 20.6315 20.6524 20.656 20.6414 20.608 20.5562 20.4883 20.4108 20.3385 20.3001 20.3387 
19.3155 19.6979 19.943 20.0819 20.1451 20.1569 20.1346 20.0904 20.0331 19.9691 19.9028 19.8378 19.7765 19.721 19.6727 19.6328 19.6022 19.5816 19.5715 19.572 19.5831 19.6044 19.6356 19.6757 19.7238 19.7787 19.8391 19.9034 19.9702 20.0378 20.1044 20.1685 20.2286 20.2831 20.3308 20.3705 20.4013 20.4224 20.4332 20.433 20.421 20.3964 20.358 20.3049 20.237 20.1576 20.0766 20.0173 20.0263 20.1874 
19.4379 19.5723 19.7307 19.8536 19.9293 19.9634 19.9663 19.9483 19.9179 19.8818 19.8445 19.8094 19.7787 19.7536 19.7351 19.7236 19.7193 19.7223 19.7322 19.7488 19.7717 19.8003 19.8338 19.8714 19.9122 19.9551 19.9992 20.0433 20.0864 20.1275 20.1654 20.1993 20.2285 20.2521 20.2698 20.281 20.2857 20.2837 20.2748 20.2588 20.2349 20.2021 20.1585 20.1023 20.0325 19.9515 19.8699 19.8141 19.8372 20.0314 
19.5742 19.558 19.6407 19.7386 19.8168 19.8661 19.8893 19.893 19.8845 19.8698 19.8534 19.8386 19.8272 19.8203 19.8183 19.8214 19.8294 19.8419 19.8585 19.8788 19.9021 19.9279 19.9555 19.9842 20.0133 20.0421 20.0699 20.096 20.1198 20.1407 20.1582 20.1719 20.1815 20.1868 20.1878 20.1845 20.1771 20.1658 20.1507 20.1315 20.1075 20.077 20.0375 19.986 19.9198 19.8395 19.7543 19.6897 19.699 19.8747 
19.721 19.602 19.624 19.6961 19.7708 19.8287 19.8659 19.8853 19.8923 19.8922 19.8892 19.8864 19.8857 19.8878 19.8933 19.902 19.9136 19.9278 19.9439 19.9617 19.9804 19.9997 20.0191 20.038 20.0559 20.0725 20.0874 20.1002 20.1105 20.1182 20.123 20.125 20.124 20.1201 20.1137 20.1048 20.094 20.0814 20.0673 20.0513 20.0325 20.0088 19.977 19.9326 19.8713 19.7913 19.6989 19.6163 19.5936 19.721 
19.8747 19.6777 19.6489 19.6953 19.7623 19.8233 19.8687 19.8982 19.9151 19.924 19.9287 19.9322 19.9362 19.9417 19.9492 19.9584 19.9693 19.9813 19.994 20.0071 20.02 20.0326 20.0444 20.0551 20.0644 20.0722 20.0783 20.0825 20.0847 20.0849 20.0831 20.0794 20.0738 20.0667 20.0583 20.049 20.0391 20.0291 20.019 20.0085 19.9965 19.9806 19.9568 19.9197 19.8631 19.7826 19.6809 19.5754 19.5112 19.5742 
20.0314 19.7705 19.6965 19.7167 19.7725 19.8318 19.8808 19.9158 19.9385 19.9524 19.9611 19.9671 19.9726 19.9784 19.9851 19.9927 20.001 20.0097 20.0184 20.0268 20.0347 20.0418 20.0478 20.0528 20.0564 20.0587 20.0596 20.059 20.0571 20.0538 20.0494 20.0438 20.0372 20.0301 20.0225 20.015 20.0079 20.0015 19.996 19.9911 19.9855 19.9766 19.9601 19.9296 19.8774 19.7964 19.6851 19.5558 19.4468 19.4379 
20.1874 19.872 19.756 19.7491 19.7905 19.8445 19.8932 19.9305 19.9562 19.9726 19.983 19.9898 19.9951 19.9999 20.0049 20.0102 20.0158 20.0213 20.0265 20.0313 20.0354 20.0387 20.0411 20.0425 20.0429 20.0422 20.0405 20.0379 20.0344 20.0302 20.0252 20.0198 20.0141 20.0082 20.0026 19.9975 19.9933 19.9903 19.9888 19.9884 19.988 19.985 19.9747 19.9502 19.9023 19.8216 19.7024 19.551 19.3982 19.3155 
20.3387 19.977 19.8216 19.7868 19.8114 19.857 19.9028 19.94 19.9667 19.9842 19.9952 20.002 20.0066 20.0102 20.0135 20.0167 20.02 20.0231 20.0259 20.0282 20.0299 20.031 20.0313 20.0308 20.0296 20.0277 20.0252 20.0221 20.0185 20.0145 20.0103 20.0059 20.0015 19.9973 19.9936 19.9906 19.9888 19.9885 19.9899 19.9929 19.9964 19.9979 19.9929 19.9739 19.9308 19.8518 19.7274 19.5575 19.3645 19.2098 
20.4818 20.082 19.8901 19.8272 19.8333 19.8682 19.909 19.9445 19.971 19.9889 20 20.0066 20.0106 20.0132 20.0152 20.017 20.0186 20.0201 20.0214 20.0223 20.0227 20.0226 20.022 20.0208 20.0191 20.017 20.0145 20.0117 20.0087 20.0055 20.0023 19.9991 19.996 19.9933 19.9911 19.9897 19.9895 19.9909 19.9942 19.9994 20.0057 20.0108 20.0104 19.9968 19.9592 19.8839 19.7574 19.5737 19.3458 19.1237 
20.6129 20.1841 19.9596 19.8693 19.8559 19.8787 19.913 19.9455 19.9711 19.9888 20 20.0066 20.0102 20.0122 20.0134 20.0143 20.015 20.0156 20.016 20.0162 20.016 20.0155 20.0147 20.0134 20.0119 20.01 20.008 20.0058 20.0035 20.0012 19.9989 19.9968 19.9948 19.9931 19.9919 19.9915 19.9923 19.9946 19.9989 20.0055 20.0136 20.0216 20.0252 20.017 19.9858 19.9161 19.7913 19.5988 19.3424 19.0591 
20.729 20.2809 20.0287 19.9126 19.8795 19.8893 19.916 19.9447 19.9687 19.9861 19.9974 20.004 20.0076 20.0093 20.0102 20.0106 20.0109 20.0111 20.0112 20.0111 20.0108 20.0103 20.0096 20.0086 20.0073 20.006 20.0045 20.0029 20.0013 19.9997 19.9982 19.9968 19.9955 19.9945 19.9939 19.994 19.9951 19.9978 20.0026 20.0098 20.0192 20.0294 20.0367 20.0341 20.01 19.948 19.8282 19.6323 19.3544 19.0177 
20.8271 20.3704 20.0961 19.9567 19.9045 19.9009 19.9192 19.9435 19.9655 19.9823 19.9935 20.0004 20.0041 20.006 20.0068 20.0071 20.0073 20.0074 20.0074 20.0074 20.0072 20.0068 20.0063 20.0056 20.0048 20.0038 20.0028 20.0017 20.0007 19.9996 19.9987 19.9977 19.9969 19.9963 19.996 19.9962 19.9973 19.9999 20.0047 20.0121 20.0223 20.0343 20.0451 20.0481 20.0319 19.9793 19.8678 19.6738 19.3818 19.0005 
20.9048 20.4504 20.1607 20.0011 19.9309 19.9139 19.9235 19.9427 19.9624 19.9783 19.9895 19.9966 20.0007 20.0028 20.0038 20.0042 20.0044 20.0046 20.0047 20.0047 20.0047 20.0046 20.0043 20.0039 20.0034 20.0028 20.0022 20.0015 20.0008 20.0001 19.9995 19.9988 19.9983 19.9978 19.9975 19.9976 19.9986 20.0009 20.0053 20.0126 20.0233 20.0368 20.0508 20.0593 20.0515 20.0097 19.9096 19.7226 19.424 19.0079 
20.9603 20.5192 20.221 20.0452 19.9586 19.9285 19.9292 19.9431 19.9599 19.9748 19.9859 19.9932 19.9976 20.0001 20.0013 20.002 20.0023 20.0026 20.0028 20.003 20.0031 20.0032 20.0031 20.0029 20.0027 20.0023 20.002 20.0015 20.0011 20.0006 20.0002 19.9997 19.9992 19.9988 19.9984 19.9984 19.999 20.0009 20.0048 20.0118 20.0226 20.0373 20.0541 20.0681 20.0689 20.0392 19.953 19.7778 19.4802 19.0397 
20.9921 20.5751 20.2757 20.0879 19.9872 19.9448 19.9366 19.9448 19.9586 19.9721 19.9828 19.9903 19.9951 19.9979 19.9994 20.0003 20.0008 20.0012 20.0015 20.0018 20.0021 20.0022 20.0023 20.0023 20.0022 20.0021 20.0019 20.0016 20.0013 20.001 20.0006 20.0002 19.9997 19.9993 19.9988 19.9985 19.9987 20.0001 20.0035 20.01 20.0207 20.0362 20.0555 20.0745 20.0841 20.0672 19.9972 19.8381 19.549 19.0952 
20.9995 20.6169 20.3236 20.1285 20.016 19.9625 19.9456 19.948 19.9584 19.9702 19.9804 19.9879 19.993 19.9961 19.9979 19.999 19.9997 20.0002 20.0006 20.001 20.0013 20.0016 20.0018 20.0019 20.0019 20.0018 20.0017 20.0015 20.0013 20.001 20.0007 20.0004 19.9999 19.9994 19.9987 19.9982 19.9981 19.9989 20.0016 20.0075 20.0178 20.0338 20.0551 20.0789 20.0969 20.0933 20.0413 19.9024 19.6289 19.1729 
20.9823 20.6435 20.3636 20.1659 20.0445 19.9811 19.956 19.9526 19.9593 19.9693 19.9787 19.9861 19.9913 19.9947 19.9967 19.998 19.9989 19.9995 19.9999 20.0004 20.0008 20.0011 20.0013 20.0015 20.0015 20.0015 20.0015 20.0013 20.0012 20.0009 20.0007 20.0003 19.9998 19.9992 19.9984 19.9977 19.9971 19.9974 19.9995 20.0045 20.0143 20.0303 20.0532 20.0811 20.1072 20.117 20.0843 19.969 19.7178 19.271 
20.9409 20.6542 20.3946 20.1992 20.0719 20.0002 19.9675 19.9584 19.9614 19.9692 19.9776 19.9847 19.99 19.9935 19.9958 19.9973 19.9982 19.9989 19.9994 19.9999 20.0003 20.0006 20.0009 20.0011 20.0012 20.0012 20.0011 20.001 20.0009 20.0007 20.0004 20.0001 19.9996 19.9989 19.998 19.997 19.9961 19.9959 19.9972 20.0014 20.0103 20.0261 20.0499 20.0812 20.1149 20.1378 20.1252 20.0363 19.8138 19.3871 
20.8763 20.6488 20.4159 20.2276 20.0975 20.0194 19.9799 19.9652 19.9645 19.97 19.9772 19.9838 19.989 19.9926 19.9951 19.9967 19.9977 19.9985 19.999 19.9995 19.9999 20.0002 20.0005 20.0007 20.0008 20.0008 20.0008 20.0007 20.0006 20.0004 20.0001 19.9997 19.9992 19.9985 19.9975 19.9963 19.9951 19.9943 19.9949 19.9981 20.0061 20.0211 20.0454 20.0794 20.1196 20.1552 20.163 20.1028 19.9143 19.5182 
20.7902 20.6275 20.4269 20.2504 20.1208 20.038 19.9927 19.973 19.9684 19.9715 19.9773 19.9833 19.9883 19.992 19.9945 19.9962 19.9973 19.9981 19.9987 19.9992 19.9995 19.9999 20.0001 20.0003 20.0004 20.0005 20.0004 20.0004 20.0002 20 19.9998 19.9994 19.9989 19.9981 19.9971 19.9957 19.9942 19.9929 19.9926 19.9948 20.0016 20.0156 20.0397 20.0755 20.1214 20.1688 20.1967 20.1667 20.0169 19.6613 
20.6845 20.5906 20.4274 20.2671 20.141 20.0557 20.0057 19.9813 19.9731 19.9736 19.978 19.9832 19.9879 19.9915 19.9941 19.9959 19.997 19.9979 19.9984 19.9989 19.9993 19.9996 19.9998 20 20.0001 20.0002 20.0001 20.0001 19.9999 19.9997 19.9995 19.9991 19.9986 19.9978 19.9967 19.9952 19.9934 19.9916 19.9905 19.9916 19.997 20.0096 20.0329 20.0698 20.1202 20.1781 20.2256 20.2264 20.1191 19.8126 
20.5621 20.5393 20.4174 20.2771 20.1577 20.072 20.0186 19.9901 19.9784 19.9764 19.9792 19.9835 19.9878 19.9913 19.9939 19.9956 19.9969 19.9977 19.9983 19.9987 19.9991 19.9994 19.9996 19.9998 19.9999 19.9999 19.9999 19.9998 19.9997 19.9995 19.9992 19.9989 19.9983 19.9975 19.9963 19.9947 19.9927 19.9904 19.9886 19.9886 19.9925 20.0034 20.0254 20.0622 20.116 20.1831 20.249 20.2806 20.2183 19.9686 
20.4258 20.4746 20.3971 20.2803 20.1706 20.0865 20.0309 19.9991 19.9842 19.9798 19.9808 19.9842 19.9879 19.9912 19.9937 19.9955 19.9968 19.9976 19.9982 19.9986 19.999 19.9993 19.9995 19.9997 19.9998 19.9998 19.9998 19.9997 19.9995 19.9993 19.9991 19.9987 19.9981 19.9973 19.9961 19.9944 19.9921 19.9895 19.987 19.9858 19.9881 19.997 20.0171 20.0532 20.1089 20.1835 20.2661 20.3279 20.3122 20.1253 
20.279 20.3983 20.367 20.2765 20.1791 20.0988 20.0424 20.0081 19.9903 19.9835 19.9829 19.9852 19.9883 19.9913 19.9938 19.9955 19.9968 19.9976 19.9982 19.9987 19.999 19.9993 19.9995 19.9996 19.9997 19.9998 19.9997 19.9996 19.9995 19.9993 19.999 19.9986 19.998 19.9972 19.996 19.9942 19.9918 19.9888 19.9856 19.9833 19.9839 19.9907 20.0084 20.0427 20.0991 20.1793 20.2767 20.3671 20.3983 20.279 
20.1253 20.3121 20.3278 20.2659 20.1833 20.1086 20.0528 20.0167 19.9966 19.9876 19.9854 19.9865 19.989 19.9917 19.9939 19.9956 19.9969 19.9977 19.9983 19.9987 19.9991 19.9993 19.9995 19.9997 19.9998 19.9998 19.9998 19.9997 19.9995 19.9993 19.999 19.9986 19.998 19.9972 19.996 19.9942 19.9917 19.9884 19.9846 19.9812 19.9801 19.9846 19.9994 20.0312 20.0867 20.1708 20.2804 20.3972 20.4747 20.4258 
19.9686 20.2182 20.2805 20.2488 20.1828 20.1157 20.0619 20.025 20.003 19.992 19.9881 19.9881 19.9899 19.9921 19.9942 19.9958 19.997 19.9979 19.9985 19.9989 19.9992 19.9995 19.9997 19.9998 19.9999 20 19.9999 19.9998 19.9997 19.9994 19.9991 19.9987 19.9981 19.9973 19.9961 19.9943 19.9917 19.9882 19.9839 19.9796 19.9768 19.9787 19.9904 20.0188 20.0723 20.1579 20.2772 20.4175 20.5393 20.5621 
19.8126 20.119 20.2263 20.2254 20.1779 20.1199 20.0694 20.0325 20.0091 19.9965 19.9911 19.99 19.991 19.9928 19.9946 19.9961 19.9973 19.9981 19.9987 19.9991 19.9995 19.9997 19.9999 20.0001 20.0002 20.0002 20.0002 20.0001 19.9999 19.9996 19.9993 19.9989 19.9983 19.9975 19.9964 19.9946 19.992 19.9883 19.9836 19.9784 19.974 19.9734 19.9816 20.006 20.056 20.1412 20.2672 20.4275 20.5907 20.6845 
19.6613 20.0168 20.1665 20.1965 20.1685 20.1211 20.0751 20.0392 20.0151 20.001 19.9942 19.992 19.9923 19.9935 19.9951 19.9965 19.9976 19.9984 19.999 19.9994 19.9997 20 20.0002 20.0004 20.0005 20.0005 20.0005 20.0004 20.0002 19.9999 19.9996 19.9991 19.9986 19.9978 19.9967 19.995 19.9925 19.9888 19.9838 19.9777 19.9719 19.9688 19.9733 19.993 20.0383 20.1209 20.2506 20.427 20.6275 20.7902 
19.5182 19.9142 20.1026 20.1627 20.1549 20.1193 20.0789 20.0449 20.0205 20.0054 19.9974 19.9942 19.9936 19.9944 19.9956 19.9968 19.9979 19.9986 19.9992 19.9996 20 20.0002 20.0005 20.0006 20.0008 20.0008 20.0008 20.0007 20.0005 20.0002 19.9999 19.9995 19.999 19.9982 19.9972 19.9956 19.9932 19.9895 19.9843 19.9777 19.9704 19.9649 19.9656 19.9802 20.0197 20.0977 20.2278 20.416 20.6489 20.8763 
19.3871 19.8137 20.0362 20.125 20.1375 20.1145 20.0808 20.0494 20.0255 20.0097 20.0007 19.9964 19.9951 19.9953 19.9962 19.9972 19.9981 19.9988 19.9994 19.9998 20.0001 20.0004 20.0007 20.0009 20.001 20.0011 20.0011 20.001 20.0009 20.0006 20.0003 19.9999 19.9994 19.9988 19.9979 19.9965 19.9942 19.9906 19.9853 19.9782 19.9698 19.9619 19.9588 19.9679 20.0006 20.0722 20.1994 20.3947 20.6543 20.9409 
19.271 19.7178 19.9688 20.0841 20.1167 20.1069 20.0806 20.0527 20.0297 20.0136 20.0037 19.9986 19.9965 19.9962 19.9967 19.9974 19.9982 19.9989 19.9994 19.9998 20.0002 20.0005 20.0008 20.001 20.0012 20.0014 20.0014 20.0014 20.0013 20.0011 20.0008 20.0005 20.0001 19.9996 19.9988 19.9975 19.9955 19.9921 19.9869 19.9795 19.97 19.9601 19.9532 19.9565 19.9816 20.0448 20.1662 20.3638 20.6436 20.9823 
19.1729 19.6288 19.9022 20.0411 20.093 20.0965 20.0783 20.0545 20.033 20.017 20.0065 20.0006 19.9977 19.9968 19.9969 19.9974 19.9981 19.9986 19.9992 19.9996 20 20.0004 20.0007 20.0011 20.0014 20.0016 20.0018 20.0018 20.0018 20.0017 20.0015 20.0013 20.001 20.0006 20 19.999 19.9972 19.9941 19.989 19.9814 19.9712 19.9593 19.9488 19.9463 19.9631 20.0165 20.1288 20.3239 20.617 20.9995 
19.0952 19.5489 19.8379 19.9969 20.0667 20.0835 20.0738 20.0546 20.0352 20.0195 20.0087 20.0021 19.9986 19.9971 19.9968 19.997 19.9975 19.998 19.9986 19.9991 19.9995 20 20.0005 20.001 20.0014 20.0018 20.0022 20.0024 20.0025 20.0026 20.0025 20.0024 20.0023 20.002 20.0016 20.0008 19.9993 19.9965 19.9918 19.9842 19.9734 19.9598 19.9459 19.9375 19.9456 19.9877 20.0883 20.276 20.5753 20.9921 
19.0397 19.48 19.7774 19.9525 20.0384 20.068 20.067 20.0528 20.0358 20.021 20.01 20.0028 19.9987 19.9967 19.996 19.9961 19.9964 19.9969 19.9975 19.9982 19.9988 19.9995 20.0002 20.0009 20.0016 20.0023 20.0029 20.0034 20.0037 20.004 20.0041 20.0042 20.0042 20.0041 20.0038 20.0033 20.0021 19.9996 19.9951 19.9877 19.9764 19.9614 19.9443 19.9302 19.9293 19.9592 20.0455 20.2212 20.5193 20.9603 
19.0079 19.4237 19.7219 19.9086 20.0084 20.0499 20.0575 20.0487 20.0345 20.0208 20.0099 20.0025 19.9979 19.9955 19.9945 19.9944 19.9947 19.9954 19.9961 19.997 19.998 19.999 20.0001 20.0012 20.0023 20.0033 20.0042 20.005 20.0057 20.0062 20.0066 20.0068 20.0069 20.0069 20.0068 20.0064 20.0054 20.0032 19.999 19.9917 19.9801 19.9639 19.9439 19.9243 19.9144 19.9312 20.0013 20.1607 20.4504 20.9048 
19.0005 19.3812 19.6725 19.866 19.9769 20.0291 20.045 20.0417 20.0307 20.0185 20.0081 20.0006 19.9958 19.9932 19.9921 19.992 19.9926 19.9935 19.9947 19.996 19.9975 19.9991 20.0007 20.0023 20.0039 20.0054 20.0068 20.008 20.009 20.0097 20.0103 20.0106 20.0107 20.0107 20.0106 20.0102 20.0092 20.0071 20.003 19.9957 19.984 19.9667 19.9442 19.9195 19.9008 19.9042 19.9563 20.0958 20.3701 20.8271 
19.0177 19.3533 19.6301 19.825 19.944 20.0054 20.0291 20.0313 20.0238 20.0135 20.0041 19.997 19.9924 19.9899 19.9891 19.9894 19.9905 19.9921 19.9939 19.996 19.9983 20.0006 20.003 20.0053 20.0075 20.0095 20.0114 20.0129 20.0141 20.015 20.0155 20.0157 20.0156 20.0153 20.0148 20.014 20.0127 20.0104 20.0063 19.999 19.987 19.9689 19.9442 19.9149 19.8879 19.8779 19.9111 20.0276 20.2803 20.729 
19.0591 19.3405 19.5952 19.7862 19.9098 19.9786 20.0093 20.0172 20.0136 20.0058 19.9979 19.9918 19.988 19.9863 19.9863 19.9876 19.9896 19.9922 19.9952 19.9984 20.0017 20.0049 20.0082 20.0112 20.0141 20.0166 20.0187 20.0203 20.0214 20.0221 20.0222 20.0218 20.021 20.0199 20.0186 20.017 20.0149 20.012 20.0074 19.9998 19.9876 19.9688 19.9425 19.9094 19.8749 19.8521 19.8661 19.9572 20.1828 20.6129 
19.1237 19.343 19.5683 19.7499 19.8746 19.9488 19.9859 19.9994 20.0003 19.9958 19.9904 19.9863 19.9842 19.9841 19.9856 19.9884 19.9921 19.9962 20.0006 20.0052 20.0097 20.014 20.018 20.0216 20.0247 20.0273 20.0292 20.0303 20.0308 20.0305 20.0294 20.0278 20.0256 20.023 20.0201 20.017 20.0136 20.0096 20.0041 19.9961 19.9836 19.9646 19.9373 19.9014 19.8607 19.8264 19.8215 19.8861 20.0799 20.4818 
19.2098 19.3607 19.5502 19.7173 19.8396 19.9173 19.9601 19.9795 19.9856 19.9856 19.984 19.983 19.9838 19.9863 19.9902 19.9953 20.0011 20.0072 20.0133 20.0192 20.0247 20.0296 20.0339 20.0375 20.0401 20.0418 20.0424 20.0421 20.0407 20.0383 20.035 20.0309 20.0263 20.0212 20.016 20.0107 20.0054 19.9998 19.9934 19.9849 19.9725 19.9539 19.9266 19.8895 19.8446 19.8007 19.7784 19.8159 19.9742 20.3387 
19.3155 19.3937 19.5425 19.6905 19.8074 19.8872 19.9353 19.9612 19.9737 19.9796 19.9831 19.9869 19.9917 19.9979 20.0051 20.013 20.0211 20.029 20.0365 20.0431 20.0488 20.0534 20.0567 20.0586 20.0592 20.0583 20.056 20.0524 20.0474 20.0413 20.0343 20.0265 20.0182 20.0097 20.0013 19.9933 19.9858 19.9788 19.9716 19.9632 19.9519 19.935 19.9096 19.8736 19.8271 19.7764 19.7389 19.7497 19.8692 20.1874 
19.4379 19.4429 19.5482 19.6745 19.784 19.8647 19.9183 19.9516 19.972 19.9853 19.9957 20.0054 20.0155 20.0259 20.0367 20.0472 20.057 20.0658 20.0731 20.0788 20.0826 20.0845 20.0843 20.0821 20.078 20.0719 20.0641 20.0547 20.044 20.0322 20.0197 20.0068 19.9938 19.9813 19.9696 19.9591 19.9501 19.9424 19.9358 19.9292 19.9209 19.9081 19.8876 19.856 19.8118 19.7582 19.7084 19.6932 19.7699 20.0314 
19.5742 19.5106 19.5736 19.678 19.7796 19.8614 19.9211 19.9629 19.9924 20.0146 20.0329 20.0492 20.0645 20.0788 20.0919 20.1032 20.1125 20.1193 20.1233 20.1245 20.1226 20.1178 20.1102 20.0999 20.0871 20.0723 20.0556 20.0377 20.0188 19.9994 19.9801 19.9614 19.9438 19.9278 19.914 19.9027 19.8943 19.8888 19.8858 19.8843 19.8827 19.8781 19.8668 19.8445 19.8077 19.7562 19.6979 19.6569 19.6849 19.8747 
19.721 19.6019 19.6301 19.7161 19.8114 19.8952 19.9618 20.0127 20.0519 20.0829 20.1085 20.1302 20.1486 20.1637 20.1754 20.1831 20.1868 20.1861 20.181 20.1715 20.1579 20.1404 20.1195 20.0958 20.0697 20.0419 20.0131 19.984 19.9553 19.9277 19.9019 19.8786 19.8585 19.842 19.8298 19.8221 19.8193 19.8213 19.8276 19.8372 19.8482 19.8578 19.8618 19.8551 19.8323 19.7893 19.7273 19.6604 19.629 19.721 
19.8747 19.7271 19.7366 19.8124 19.905 19.9918 20.0649 20.1238 20.1705 20.2074 20.2362 20.2581 20.2734 20.2822 20.2844 20.28 20.269 20.2516 20.228 20.199 20.1651 20.1272 20.0862 20.0432 19.999 19.9549 19.912 19.8712 19.8336 19.8001 19.7716 19.7487 19.7321 19.7224 19.7197 19.7242 19.736 19.7545 19.7791 19.8085 19.8405 19.8722 19.8991 19.9155 19.9142 19.8875 19.8285 19.7366 19.6298 19.5742 
20.0314 19.9055 19.9231 20.0008 20.0943 20.183 20.2587 20.3198 20.3666 20.4004 20.4222 20.4327 20.4323 20.4214 20.4004 20.3698 20.3302 20.2827 20.2283 20.1683 20.1042 20.0376 19.9701 19.9033 19.839 19.7786 19.7237 19.6755 19.6354 19.6043 19.5829 19.5719 19.5715 19.5817 19.6024 19.6332 19.6733 19.7217 19.7769 19.8372 19.9001 19.9623 20.0193 20.0655 20.093 20.0914 20.0463 19.9381 19.7426 19.4379 
20.1874 20.1744 20.2339 20.3242 20.4174 20.5003 20.567 20.6157 20.6459 20.6581 20.653 20.6314 20.594 20.5421 20.477 20.4002 20.3137 20.2195 20.12 20.0175 19.9147 19.8139 19.7177 19.6285 19.5485 19.4796 19.4235 19.3816 19.3549 19.3441 19.3495 19.3709 19.4079 19.4595 19.5245 19.6013 19.6881 19.7827 19.8827 19.9854 20.0877 20.186 20.2765 20.3542 20.4127 20.4428 20.4287 20.3378 20.0901 19.3155 
20.3387 20.6129 20.729 20.8271 20.9048 20.9603 20.9921 20.9995 20.9823 20.9409 20.8763 20.7902 20.6845 20.5621 20.4258 20.279 20.1253 19.9686 19.8126 19.6613 19.5182 19.3871 19.271 19.1729 19.0952 19.0397 19.0079 19.0005 19.0177 19.0591 19.1237 19.2098 19.3155 19.4379 19.5742 19.721 19.8747 20.0314 20.1874 20.3387 20.4818 20.6129 20.729 20.8271 20.9048 20.9603 20.9921 20.9995 20.9823 19.2098 
