# vtk DataFile Version 3.0
Temperature distribution on a 2D grid
ASCII

DATASET STRUCTURED_POINTS
DIMENSIONS 50 50 1
ORIGIN 0.0 0.0 0.0
SPACING 0.01 0.01 1.0

POINT_DATA 2500
SCALARS temperature double
LOOKUP_TABLE default
20.3387 19.5182 19.3871 19.271 19.1729 19.0952 19.0397 19.0079 19.0005 19.0177 19.0591 19.1237 19.2098 19.3155 19.4379 19.5742 19.721 19.8747 20.0314 20.1874 20.3387 20.4818 20.6129 20.729 20.8271 20.9048 20.9603 20.9921 20.9995 20.9823 20.9409 20.8763 20.7902 20.6845 20.5621 20.4258 20.279 20.1253 19.9686 19.8126 19.6613 19.5182 19.3871 19.271 19.1729 19.0952 19.0397 19.0079 19.0005 19.0591 
20.1874 19.832 19.6471 19.5241 19.4429 19.3944 19.3736 19.3771 19.4018 19.4451 19.5044 19.5773 19.6613 19.754 19.8528 19.9552 20.0587 20.1606 20.2586 20.3502 20.4331 20.5053 20.5651 20.611 20.6419 20.6569 20.6558 20.6386 20.6056 20.5577 20.4961 20.4223 20.3381 20.2456 20.147 20.0447 19.9413 19.8395 19.7418 19.651 19.5695 19.4998 19.4438 19.4027 19.3758 19.3599 19.3469 19.3216 19.2593 19.1237 
20.0314 19.9714 19.8709 19.7798 19.714 19.6762 19.6645 19.6749 19.7035 19.7463 19.7996 19.8604 19.926 19.9941 20.0625 20.1293 20.1928 20.2515 20.3038 20.3487 20.3849 20.4116 20.4281 20.4341 20.4295 20.4143 20.3889 20.354 20.3103 20.2591 20.2015 20.1389 20.0729 20.0051 19.937 19.8705 19.8072 19.7488 19.6969 19.6534 19.62 19.5982 19.5893 19.593 19.6067 19.6229 19.6264 19.5899 19.4711 19.2098 
19.8747 20.0097 20.0116 19.9685 19.9221 19.8895 19.8759 19.8805 19.9 19.9308 19.9689 20.0113 20.0552 20.0987 20.14 20.1778 20.2112 20.2391 20.2611 20.2765 20.285 20.2865 20.281 20.2685 20.2495 20.2243 20.1936 20.1582 20.119 20.0768 20.0328 19.9879 19.9434 19.9002 19.8593 19.8219 19.7888 19.7611 19.7398 19.7261 19.7214 19.727 19.7438 19.7713 19.8059 19.8381 19.8483 19.8024 19.6483 19.3155 
19.721 19.9862 20.0755 20.0804 20.0549 20.0269 20.0088 20.0038 20.0108 20.0269 20.0489 20.0737 20.099 20.123 20.1443 20.162 20.1757 20.1848 20.1892 20.1888 20.1837 20.174 20.16 20.1421 20.1208 20.0965 20.0698 20.0415 20.0122 19.9826 19.9535 19.9256 19.8994 19.8757 19.8549 19.8376 19.8242 19.8153 19.8116 19.8139 19.8237 19.8421 19.8705 19.9088 19.9533 19.9943 20.0107 19.9651 19.8 19.4379 
19.5742 19.9257 20.0822 20.129 20.1239 20.1015 20.0799 20.0662 20.0619 20.0653 20.0739 20.0852 20.0969 20.1075 20.116 20.1217 20.1242 20.1235 20.1196 20.1125 20.1027 20.0902 20.0755 20.059 20.041 20.0221 20.0026 19.9832 19.9642 19.9461 19.9295 19.9145 19.9017 19.8912 19.8832 19.8779 19.8755 19.8763 19.8807 19.8897 19.9045 19.927 19.9587 20.0005 20.0497 20.0974 20.1229 20.0883 19.9332 19.5742 
19.4379 19.845 20.0514 20.133 20.1471 20.1319 20.1093 20.0898 20.0772 20.0713 20.0704 20.0724 20.0755 20.0782 20.0796 20.0791 20.0766 20.072 20.0654 20.0571 20.0473 20.0362 20.0243 20.0117 19.9989 19.9862 19.9739 19.9622 19.9516 19.9422 19.9343 19.928 19.9234 19.9207 19.9197 19.9205 19.923 19.9275 19.9342 19.9442 19.9588 19.9804 20.0111 20.0529 20.1046 20.1589 20.1971 20.1821 20.0529 19.721 
19.3155 19.7559 19.9988 20.1092 20.1416 20.135 20.114 20.0919 20.0742 20.0624 20.0556 20.0521 20.0503 20.0489 20.0471 20.0443 20.0404 20.0353 20.0291 20.0221 20.0144 20.0063 19.998 19.9898 19.9819 19.9745 19.9677 19.9618 19.9569 19.9532 19.9506 19.9493 19.9492 19.9502 19.9523 19.9553 19.9591 19.9637 19.9696 19.9777 19.9897 20.0081 20.036 20.0763 20.1296 20.1909 20.2441 20.2547 20.1622 19.8747 
19.2098 19.6665 19.9356 20.0701 20.1198 20.1231 20.1062 20.0841 20.0643 20.0494 20.0393 20.0329 20.0288 20.0258 20.0231 20.0201 20.0166 20.0125 20.008 20.0031 19.9981 19.993 19.9881 19.9834 19.9792 19.9756 19.9726 19.9704 19.9689 19.9683 19.9685 19.9696 19.9714 19.9737 19.9765 19.9795 19.9827 19.9859 19.9897 19.9949 20.0033 20.0179 20.0422 20.0804 20.1349 20.2032 20.2725 20.3116 20.2624 20.0314 
19.1237 19.5826 19.8693 20.0239 20.0899 20.1042 20.0932 20.0734 20.0536 20.0376 20.0261 20.0184 20.0135 20.0102 20.0077 20.0054 20.003 20.0005 19.9978 19.995 19.9922 19.9895 19.9871 19.985 19.9833 19.982 19.9812 19.981 19.9813 19.9821 19.9835 19.9853 19.9874 19.9897 19.9921 19.9942 19.996 19.9974 19.9988 20.001 20.006 20.0167 20.0374 20.0732 20.1282 20.2028 20.2877 20.3562 20.3537 20.1874 
19.0591 19.508 19.8048 19.9757 20.057 20.0827 20.0789 20.0629 20.0447 20.0289 20.0172 20.0092 20.0042 20.0011 19.9992 19.9978 19.9966 19.9955 19.9943 19.9931 19.992 19.991 19.9902 19.9897 19.9894 19.9893 19.9896 19.9903 19.9912 19.9925 19.994 19.9957 19.9975 19.9992 20.0008 20.0018 20.0023 20.002 20.0012 20.0009 20.0027 20.0099 20.027 20.06 20.1148 20.1943 20.2934 20.3903 20.4353 20.3387 
19.0177 19.4455 19.7451 19.9284 20.0235 20.0606 20.0649 20.0537 20.0381 20.0235 20.0121 20.0043 19.9995 19.9968 19.9955 19.9948 19.9946 19.9944 19.9943 19.9943 19.9942 19.9942 19.9944 19.9946 19.995 19.9955 19.9962 19.997 19.998 19.9991 20.0003 20.0016 20.0029 20.0039 20.0047 20.0048 20.0042 20.0026 20.0002 19.9978 19.997 20.0009 20.0145 20.0443 20.0978 20.1805 20.2915 20.4145 20.5062 20.4818 
19.0005 19.3969 19.6923 19.8839 19.9909 20.039 20.0515 20.0459 20.0334 20.0205 20.0099 20.0025 19.9979 19.9955 19.9945 19.9944 19.9947 19.9953 19.9958 19.9964 19.9969 19.9974 19.998 19.9986 19.9991 19.9998 20.0005 20.0012 20.0019 20.0027 20.0036 20.0044 20.0051 20.0056 20.0057 20.0053 20.0039 20.0014 19.9979 19.9939 19.991 19.992 20.002 20.0281 20.079 20.1629 20.283 20.429 20.5647 20.6129 
19.0079 19.3634 19.6477 19.8432 19.9597 20.0179 20.0386 20.0388 20.0299 20.019 20.0094 20.0024 19.998 19.9958 19.995 19.9951 19.9958 19.9966 19.9975 19.9984 19.9991 19.9999 20.0005 20.0012 20.0017 20.0023 20.0028 20.0033 20.0038 20.0042 20.0047 20.0051 20.0055 20.0056 20.0054 20.0045 20.0028 19.9999 19.9957 19.9905 19.9858 19.9841 19.9905 20.0123 20.0594 20.1424 20.2684 20.4334 20.6097 20.729 
19.0397 19.3459 19.6122 19.807 19.9305 19.9974 20.026 20.0319 20.0269 20.0181 20.0097 20.0031 19.9989 19.9967 19.996 19.9961 19.9969 19.9978 19.9988 19.9998 20.0006 20.0014 20.002 20.0026 20.003 20.0034 20.0037 20.004 20.0042 20.0044 20.0046 20.0048 20.0049 20.0048 20.0045 20.0035 20.0017 19.9986 19.994 19.988 19.9817 19.9776 19.9803 19.9973 20.0395 20.1193 20.2479 20.4278 20.64 20.8271 
19.0952 19.3446 19.5866 19.7761 19.9035 19.9776 20.0133 20.0249 20.0238 20.0174 20.0101 20.0041 20 19.9978 19.9969 19.997 19.9977 19.9986 19.9996 20.0005 20.0013 20.002 20.0026 20.003 20.0034 20.0036 20.0038 20.0039 20.0039 20.0039 20.004 20.004 20.004 20.0039 20.0035 20.0026 20.0009 19.9978 19.993 19.9865 19.979 19.9725 19.9714 19.9833 20.0194 20.094 20.222 20.4121 20.6547 20.9048 
19.1729 19.3596 19.5714 19.7509 19.8792 19.9587 20.0006 20.0176 20.0203 20.0163 20.0104 20.005 20.0011 19.9987 19.9977 19.9977 19.9982 19.999 19.9999 20.0007 20.0015 20.0021 20.0026 20.0029 20.0032 20.0033 20.0033 20.0033 20.0032 20.0032 20.0031 20.0031 20.003 20.003 20.0027 20.002 20.0004 19.9975 19.9928 19.986 19.9774 19.9687 19.964 19.9704 19.9994 20.0669 20.191 20.3865 20.6535 20.9603 
19.271 19.3904 19.5668 19.7319 19.8579 19.9409 19.988 20.0098 20.0163 20.0148 20.0103 20.0056 20.0018 19.9995 19.9983 19.9981 19.9984 19.9991 19.9998 20.0006 20.0013 20.0018 20.0022 20.0025 20.0026 20.0027 20.0027 20.0026 20.0025 20.0023 20.0023 20.0022 20.0022 20.0022 20.0021 20.0015 20.0003 19.9977 19.9931 19.9861 19.9767 19.9661 19.9578 19.9585 19.9798 20.0385 20.1556 20.3516 20.6362 20.9921 
19.3871 19.4362 19.5728 19.7195 19.8402 19.9245 19.9756 20.0018 20.0118 20.0128 20.0098 20.0059 20.0024 20 19.9987 19.9983 19.9984 19.9989 19.9996 20.0002 20.0008 20.0013 20.0017 20.0019 20.002 20.0021 20.002 20.0019 20.0017 20.0016 20.0015 20.0015 20.0015 20.0016 20.0016 20.0013 20.0003 19.9981 19.9938 19.9869 19.9769 19.9646 19.9528 19.9478 19.9608 20.0093 20.1164 20.308 20.6033 20.9995 
19.5182 19.4959 19.5894 19.7141 19.8263 19.9099 19.9637 19.9936 20.0069 20.0104 20.0089 20.0058 20.0027 20.0003 19.9989 19.9984 19.9984 19.9987 19.9993 19.9998 20.0004 20.0008 20.0011 20.0013 20.0014 20.0014 20.0014 20.0013 20.0011 20.001 20.0009 20.0009 20.0009 20.0011 20.0013 20.0012 20.0006 19.9987 19.9948 19.988 19.9776 19.964 19.9491 19.9385 19.9429 19.9798 20.0744 20.2569 20.5556 20.9823 
19.6613 19.5679 19.616 19.7155 19.8166 19.8974 19.9527 19.9854 20.0017 20.0075 20.0077 20.0055 20.0028 20.0006 19.9991 19.9984 19.9983 19.9985 19.9989 19.9994 19.9999 20.0003 20.0006 20.0008 20.0009 20.0009 20.0009 20.0007 20.0006 20.0005 20.0004 20.0004 20.0005 20.0007 20.001 20.0012 20.0008 19.9993 19.9959 19.9894 19.979 19.9642 19.9466 19.9307 19.9263 19.9509 20.0305 20.1995 20.4942 20.9409 
19.8126 19.6506 19.6521 19.724 19.8114 19.8874 19.9427 19.9775 19.9964 20.0044 20.0062 20.0049 20.0028 20.0007 19.9993 19.9985 19.9982 19.9983 19.9987 19.9991 19.9995 19.9999 20.0002 20.0004 20.0005 20.0005 20.0004 20.0003 20.0002 20 19.9999 19.9999 20.0001 20.0003 20.0007 20.0011 20.001 20 19.9971 19.9911 19.9808 19.9653 19.9453 19.9245 19.9115 19.9231 19.9859 20.1371 20.4206 20.8763 
19.9686 19.7419 19.6967 19.7392 19.8108 19.8801 19.934 19.9701 19.991 20.0011 20.0044 20.0042 20.0026 20.0008 19.9994 19.9986 19.9982 19.9982 19.9985 19.9988 19.9992 19.9996 19.9998 20 20.0001 20.0002 20.0001 20 19.9999 19.9997 19.9996 19.9996 19.9997 20 20.0005 20.001 20.0012 20.0007 19.9983 19.9929 19.983 19.9672 19.9454 19.9201 19.8988 19.8971 19.9415 20.0714 20.3366 20.7902 
20.1253 19.8395 19.7487 19.7608 19.8148 19.8757 19.9269 19.9634 19.9859 19.9977 20.0025 20.0034 20.0024 20.0009 19.9996 19.9987 19.9983 19.9982 19.9984 19.9987 19.999 19.9993 19.9996 19.9998 19.9999 19.9999 19.9999 19.9998 19.9996 19.9995 19.9993 19.9993 19.9994 19.9997 20.0002 20.0008 20.0014 20.0012 19.9995 19.9949 19.9856 19.9698 19.9467 19.9176 19.8886 19.8737 19.8986 20.0038 20.2444 20.6845 
20.279 19.9411 19.8069 19.7883 19.8233 19.8743 19.9216 19.9575 19.981 19.9943 20.0005 20.0024 20.0021 20.0009 19.9998 19.9989 19.9984 19.9983 19.9984 19.9986 19.9989 19.9992 19.9995 19.9997 19.9998 19.9998 19.9998 19.9997 19.9995 19.9993 19.9992 19.9991 19.9991 19.9994 19.9999 20.0007 20.0015 20.0018 20.0007 19.9969 19.9884 19.9731 19.9492 19.9171 19.881 19.8532 19.8581 19.9361 20.1461 20.5621 
20.4258 20.0441 19.8699 19.8209 19.8362 19.876 19.9182 19.9526 19.9765 19.991 19.9984 20.0013 20.0017 20.0009 19.9999 19.9991 19.9986 19.9984 19.9985 19.9986 19.9989 19.9992 19.9994 19.9996 19.9997 19.9998 19.9997 19.9996 19.9995 19.9992 19.999 19.9989 19.9989 19.9991 19.9997 20.0005 20.0015 20.0022 20.0018 19.999 19.9915 19.977 19.953 19.9185 19.8763 19.8364 19.8211 19.87 20.0442 20.4258 
20.5621 20.146 19.936 19.8579 19.853 19.8806 19.9166 19.9488 19.9726 19.9879 19.9963 20.0001 20.0012 20.0009 20.0001 19.9993 19.9988 19.9986 19.9986 19.9987 19.999 19.9992 19.9995 19.9997 19.9998 19.9998 19.9998 19.9997 19.9995 19.9993 19.999 19.9988 19.9988 19.9989 19.9994 20.0003 20.0015 20.0026 20.0029 20.001 19.9948 19.9814 19.9579 19.922 19.8746 19.8236 19.7884 19.807 19.9411 20.279 
20.6845 20.2443 20.0036 19.8984 19.8733 19.8882 19.9171 19.9462 19.9692 19.985 19.9943 19.9989 20.0006 20.0007 20.0002 19.9996 19.9991 19.9988 19.9988 19.9989 19.9991 19.9994 19.9996 19.9998 19.9999 20 19.9999 19.9998 19.9996 19.9994 19.9991 19.9988 19.9987 19.9988 19.9993 20.0001 20.0015 20.0029 20.0039 20.003 19.9982 19.9863 19.9637 19.9273 19.876 19.815 19.761 19.7488 19.8396 20.1253 
20.7902 20.3365 20.0712 19.9413 19.8968 19.8984 19.9196 19.9448 19.9666 19.9823 19.9922 19.9976 19.9999 20.0005 20.0003 19.9998 19.9994 19.9991 19.9991 19.9992 19.9994 19.9996 19.9998 20 20.0002 20.0002 20.0002 20.0001 19.9999 19.9996 19.9993 19.999 19.9987 19.9987 19.9991 20 20.0014 20.0032 20.0047 20.0049 20.0015 19.9914 19.9705 19.9343 19.8804 19.811 19.7394 19.6968 19.742 19.9686 
20.8763 20.4205 20.1369 19.9856 19.9227 19.911 19.9239 19.9447 19.9646 19.98 19.9903 19.9963 19.9992 20.0003 20.0003 20 19.9997 19.9995 19.9994 19.9995 19.9997 19.9999 20.0001 20.0004 20.0005 20.0006 20.0006 20.0004 20.0002 19.9999 19.9995 19.9992 19.9989 19.9988 19.999 19.9998 20.0013 20.0033 20.0054 20.0066 20.0048 19.9967 19.9778 19.9429 19.8876 19.8116 19.7241 19.6522 19.6507 19.8126 
20.9409 20.4941 20.1993 20.0302 19.9504 19.9258 19.93 19.9459 19.9635 19.9782 19.9886 19.9951 19.9985 20 20.0004 20.0003 20 19.9999 19.9998 19.9999 20.0001 20.0004 20.0006 20.0008 20.001 20.001 20.001 20.0009 20.0007 20.0003 19.9999 19.9994 19.999 19.9988 19.9989 19.9996 20.0011 20.0033 20.0059 20.0081 20.0079 20.002 19.9857 19.9529 19.8976 19.8168 19.7157 19.6161 19.568 19.6613 
20.9823 20.5555 20.2567 20.074 19.9793 19.9423 19.9378 19.9483 19.9631 19.9768 19.9871 19.9939 19.9978 19.9997 20.0004 20.0006 20.0005 20.0004 20.0004 20.0005 20.0007 20.0009 20.0012 20.0014 20.0015 20.0016 20.0016 20.0014 20.0012 20.0008 20.0003 19.9997 19.9992 19.9989 19.9988 19.9994 20.0008 20.0031 20.0062 20.0093 20.0107 20.0072 19.9938 19.9639 19.91 19.8264 19.7141 19.5894 19.4959 19.5182 
20.9995 20.6032 20.3078 20.116 20.0088 19.9602 19.9471 19.9521 19.9638 19.976 19.986 19.993 19.9973 19.9996 20.0006 20.001 20.001 20.001 20.0011 20.0012 20.0014 20.0016 20.0018 20.002 20.0021 20.0022 20.0021 20.0019 20.0016 20.0012 20.0006 20 19.9993 19.9988 19.9986 19.999 20.0003 20.0027 20.0061 20.0101 20.013 20.012 20.0019 19.9757 19.9246 19.8403 19.7196 19.5729 19.4362 19.3871 
20.9921 20.6361 20.3513 20.1552 20.0381 19.9793 19.9579 19.9571 19.9654 19.976 19.9854 19.9924 19.997 19.9996 20.001 20.0016 20.0018 20.0018 20.0019 20.002 20.0022 20.0024 20.0025 20.0027 20.0028 20.0027 20.0026 20.0024 20.002 20.0014 20.0008 20 19.9992 19.9986 19.9982 19.9984 19.9996 20.0019 20.0057 20.0104 20.0149 20.0164 20.01 19.9881 19.941 19.858 19.732 19.5668 19.3904 19.271 
20.9603 20.6534 20.3864 20.1909 20.0667 19.9991 19.97 19.9636 19.9683 19.977 19.9856 19.9924 19.9971 20 20.0016 20.0024 20.0027 20.0028 20.0029 20.0029 20.003 20.0031 20.0032 20.0032 20.0032 20.003 20.0028 20.0024 20.002 20.0013 20.0006 19.9997 19.9988 19.998 19.9975 19.9976 19.9986 20.0009 20.0049 20.0104 20.0164 20.0204 20.0177 20.0008 19.9589 19.8794 19.7511 19.5715 19.3597 19.1729 
20.9048 20.6548 20.4122 20.2222 20.0942 20.0196 19.9835 19.9716 19.9726 19.9791 19.9866 19.9931 19.9978 20.0009 20.0026 20.0035 20.0038 20.0039 20.0038 20.0038 20.0037 20.0036 20.0035 20.0033 20.0031 20.0028 20.0024 20.002 20.0014 20.0006 19.9998 19.9989 19.998 19.9971 19.9965 19.9964 19.9974 19.9997 20.0039 20.0101 20.0175 20.024 20.0253 20.0137 19.9781 19.904 19.7765 19.5869 19.3448 19.0952 
20.8271 20.6402 20.4283 20.2486 20.1201 20.0404 19.9983 19.9813 19.9785 19.9826 19.9888 19.9947 19.9991 20.0021 20.0038 20.0046 20.0049 20.0047 20.0045 20.0041 20.0038 20.0034 20.003 20.0026 20.0022 20.0017 20.0012 20.0006 19.9999 19.9991 19.9983 19.9975 19.9966 19.9957 19.9952 19.9952 19.9961 19.9986 20.0031 20.0098 20.0186 20.0275 20.0328 20.0269 19.9984 19.9314 19.8078 19.6128 19.3462 19.0397 
20.729 20.6103 20.4345 20.2699 20.1442 20.0615 20.0145 19.9926 19.9861 19.9876 19.9922 19.997 20.0009 20.0036 20.005 20.0055 20.0053 20.0049 20.0042 20.0034 20.0027 20.0019 20.0012 20.0005 19.9998 19.9992 19.9986 19.9979 19.9973 19.9967 19.9961 19.9955 19.9948 19.9943 19.994 19.9942 19.9954 19.9981 20.0029 20.0103 20.0203 20.0315 20.0406 20.0406 20.0198 19.9615 19.8447 19.6487 19.364 19.0079 
20.6129 20.5657 20.4307 20.2855 20.166 20.0824 20.0316 20.0055 19.9952 19.9938 19.9963 19.9997 20.0026 20.0045 20.0052 20.0051 20.0044 20.0033 20.002 20.0007 19.9995 19.9983 19.9973 19.9964 19.9956 19.9949 19.9944 19.994 19.9937 19.9935 19.9934 19.9933 19.9933 19.9934 19.9937 19.9944 19.996 19.9991 20.0043 20.0123 20.0234 20.0368 20.0494 20.0551 20.0424 19.9939 19.8863 19.694 19.3977 19.0005 
20.4818 20.5075 20.417 20.295 20.1847 20.1024 20.0491 20.019 20.0049 20.0003 20.0002 20.0016 20.003 20.0036 20.0033 20.0022 20.0005 19.9987 19.9967 19.9948 19.9932 19.9917 19.9905 19.9896 19.9891 19.9888 19.9888 19.9891 19.9896 19.9903 19.9912 19.9922 19.9932 19.9943 19.9956 19.9972 19.9995 20.0031 20.0087 20.0172 20.0291 20.0441 20.0598 20.0707 20.066 20.028 19.9319 19.7475 19.4466 19.0177 
20.3387 20.4369 20.3932 20.2975 20.1992 20.12 20.0651 20.0316 20.0135 20.0051 20.0018 20.0007 19.9999 19.9987 19.9969 19.9946 19.992 19.9893 19.9867 19.9845 19.9827 19.9814 19.9806 19.9804 19.9807 19.9815 19.9828 19.9845 19.9866 19.9889 19.9914 19.9941 19.9967 19.9993 20.0019 20.0046 20.0077 20.0118 20.0177 20.0263 20.0384 20.0542 20.0721 20.0874 20.09 20.0628 19.9799 19.8075 19.5093 19.0591 
20.1874 20.3549 20.3586 20.291 20.2066 20.1321 20.0766 20.0398 20.0175 20.0049 19.9979 19.9936 19.9902 19.9869 19.9834 19.9799 19.9764 19.9733 19.9708 19.9689 19.9679 19.9677 19.9683 19.9698 19.9721 19.9751 19.9788 19.9829 19.9875 19.9924 19.9973 20.0023 20.007 20.0114 20.0154 20.0191 20.0228 20.0271 20.0326 20.0405 20.0518 20.0671 20.0857 20.1037 20.1125 20.0959 20.0276 19.8711 19.5832 19.1237 
20.0314 20.2622 20.3114 20.2721 20.2027 20.1337 20.0781 20.0381 20.0116 19.9945 19.9834 19.9756 19.9695 19.9643 19.9596 19.9556 19.9523 19.9499 19.9487 19.9487 19.95 19.9526 19.9564 19.9613 19.9673 19.974 19.9815 19.9894 19.9976 20.0058 20.0137 20.0213 20.0281 20.0341 20.0392 20.0433 20.0467 20.0498 20.0536 20.0592 20.0678 20.0807 20.0977 20.1164 20.1296 20.1225 20.0699 19.9338 19.6649 19.2098 
19.8747 20.1584 20.2479 20.235 20.18 20.1169 20.0615 20.0188 19.9882 19.9669 19.9521 19.9415 19.9337 19.9278 19.9235 19.9207 19.9197 19.9204 19.923 19.9275 19.9338 19.9417 19.9511 19.9618 19.9735 19.9858 19.9986 20.0114 20.0239 20.0357 20.0467 20.0564 20.0645 20.0709 20.0754 20.078 20.079 20.0788 20.0784 20.079 20.0822 20.0895 20.102 20.1183 20.1333 20.1345 20.0986 19.988 19.7489 19.3155 
19.721 20.042 20.1622 20.1706 20.128 20.0704 20.016 19.9716 19.9382 19.9144 19.8979 19.8868 19.8799 19.8764 19.8758 19.8781 19.8832 19.8909 19.9013 19.9141 19.929 19.9457 19.9638 19.9828 20.0023 20.0217 20.0407 20.0586 20.0752 20.0898 20.1022 20.1119 20.1188 20.1226 20.1232 20.1207 20.1154 20.108 20.0994 20.091 20.0849 20.0829 20.087 20.0974 20.1111 20.1188 20.1008 20.022 19.8267 19.4379 
19.5742 19.9091 20.045 20.0666 20.0331 19.9809 19.9291 19.8858 19.8534 19.8312 19.8176 19.8112 19.8106 19.8152 19.8244 19.8377 19.8549 19.8756 19.8992 19.9253 19.9532 19.9823 20.0119 20.0412 20.0695 20.0962 20.1205 20.1419 20.1597 20.1737 20.1833 20.1882 20.1885 20.1839 20.1747 20.1611 20.1437 20.1232 20.101 20.0788 20.0586 20.0431 20.0348 20.0355 20.0448 20.0572 20.0584 20.0191 19.8863 19.5742 
19.4379 19.7535 19.8838 19.9077 19.8801 19.8348 19.7902 19.7546 19.7307 19.7183 19.7165 19.7238 19.7389 19.7609 19.7889 19.822 19.8593 19.9001 19.9432 19.9877 20.0325 20.0765 20.1187 20.158 20.1934 20.2241 20.2493 20.2683 20.2808 20.2863 20.2847 20.2761 20.2605 20.2385 20.2104 20.1771 20.1394 20.0988 20.0568 20.0153 19.9769 19.9445 19.9212 19.91 19.9127 19.9283 19.9495 19.9572 19.9093 19.721 
19.3155 19.5652 19.6636 19.6791 19.6571 19.6251 19.5979 19.5823 19.5804 19.5922 19.6165 19.6517 19.6962 19.7486 19.8072 19.8706 19.937 20.005 20.0728 20.1387 20.2013 20.2589 20.3102 20.3538 20.3888 20.4142 20.4294 20.434 20.428 20.4114 20.3846 20.3484 20.3035 20.251 20.1923 20.1287 20.0621 19.9942 19.9271 19.8633 19.8054 19.7564 19.7196 19.6984 19.696 19.7149 19.7552 19.8124 19.8688 19.8747 
19.2098 19.3288 19.3703 19.3736 19.3658 19.3626 19.3721 19.3975 19.4394 19.4967 19.5677 19.65 19.7414 19.8394 19.9413 20.0447 20.147 20.2455 20.3381 20.4223 20.4961 20.5576 20.6055 20.6385 20.6557 20.6569 20.6418 20.611 20.5651 20.5052 20.433 20.35 20.2584 20.1604 20.0584 19.9549 19.8526 19.754 19.6618 19.5788 19.5074 19.4505 19.4106 19.3903 19.3925 19.42 19.4771 19.5714 19.7213 20.0314 
19.1237 19.0177 19.0005 19.0079 19.0397 19.0952 19.1729 19.271 19.3871 19.5182 19.6613 19.8126 19.9686 20.1253 20.279 20.4258 20.5621 20.6845 20.7902 20.8763 20.9409 20.9823 20.9995 20.9921 20.9603 20.9048 20.8271 20.729 20.6129 20.4818 20.3387 20.1874 20.0314 19.8747 19.721 19.5742 19.4379 19.3155 19.2098 19.1237 19.0591 19.0177 19.0005 19.0079 19.0397 19.0952 19.1729 19.271 19.3871 20.1874 
