# vtk DataFile Version 3.0
Temperature distribution on a 2D grid
ASCII

DATASET STRUCTURED_POINTS
DIMENSIONS 50 50 1
ORIGIN 0.0 0.0 0.0
SPACING 0.01 0.01 1.0

POINT_DATA 2500
SCALARS temperature double
LOOKUP_TABLE default
20.9877 19 19.0123 19.0489 19.109 19.191 19.2929 19.4122 19.546 19.691 19.8436 20 20.1564 20.309 20.454 20.5878 20.7071 20.809 20.891 20.9511 20.9877 21 20.9877 20.9511 20.891 20.809 20.7071 20.5878 20.454 20.309 20.1564 20 19.8436 19.691 19.546 19.4122 19.2929 19.191 19.109 19.0489 19.0123 19 19.0123 19.0489 19.109 19.191 19.2929 19.4122 19.546 19.8436 
20.9511 20.0151 19.7253 19.6296 19.625 19.6692 19.7417 19.8311 19.9299 20.033 20.1361 20.2361 20.33 20.4155 20.4906 20.5533 20.6022 20.6363 20.6546 20.6568 20.6428 20.613 20.568 20.5091 20.4377 20.3555 20.2646 20.1671 20.0656 19.9624 19.8602 19.7614 19.6684 19.5837 19.5091 19.4465 19.3975 19.3632 19.3445 19.3419 19.356 19.3869 19.4349 19.5002 19.5827 19.6808 19.7901 19.8989 19.9817 20 
20.891 20.4146 20.141 20.0036 19.9534 19.957 19.9926 20.0459 20.1075 20.1709 20.2318 20.2874 20.3355 20.3749 20.4045 20.4238 20.4323 20.43 20.417 20.3937 20.3607 20.3188 20.2691 20.2128 20.1512 20.0859 20.0185 19.9507 19.8841 19.8204 19.7611 19.7077 19.6615 19.6235 19.5948 19.5759 19.5673 19.569 19.5811 19.6036 19.6366 19.6804 19.7359 19.8044 19.8873 19.9843 20.0899 20.1872 20.2361 20.1564 
20.809 20.5614 20.35 20.2089 20.1322 20.1037 20.1069 20.1286 20.1592 20.1919 20.2225 20.248 20.2671 20.279 20.2832 20.2799 20.2693 20.2519 20.2281 20.1986 20.1642 20.1258 20.0842 20.0407 19.9961 19.9517 19.9084 19.8675 19.8298 19.7963 19.7679 19.7451 19.7287 19.7189 19.7159 19.7196 19.73 19.7466 19.7691 19.7973 19.8313 19.8719 19.921 19.9814 20.0563 20.1472 20.2501 20.3475 20.3959 20.309 
20.7071 20.5922 20.4362 20.3035 20.2127 20.1616 20.1403 20.1382 20.1464 20.1584 20.1696 20.1776 20.1808 20.1789 20.1717 20.1596 20.1432 20.1228 20.0993 20.0733 20.0454 20.0164 19.987 19.958 19.93 19.9038 19.8799 19.8591 19.8417 19.8282 19.819 19.8143 19.8141 19.8185 19.8272 19.8399 19.856 19.8752 19.897 19.9211 19.9479 19.9788 20.0165 20.0653 20.1303 20.2157 20.3202 20.4291 20.5014 20.454 
20.5878 20.5647 20.4546 20.3346 20.2378 20.1723 20.1342 20.1158 20.1094 20.1086 20.1091 20.1083 20.1046 20.0977 20.0875 20.0744 20.059 20.0417 20.0233 20.0041 19.9848 19.9659 19.9479 19.9311 19.9161 19.9032 19.8926 19.8848 19.8798 19.8778 19.8788 19.8829 19.8898 19.8994 19.9113 19.9251 19.9402 19.956 19.9722 19.9887 20.0059 20.0258 20.0518 20.0893 20.1454 20.2269 20.3363 20.4634 20.5729 20.5878 
20.454 20.5055 20.437 20.3331 20.2365 20.1632 20.1147 20.086 20.0706 20.0628 20.0582 20.054 20.0486 20.0414 20.0325 20.022 20.0104 19.9981 19.9857 19.9735 19.962 19.9513 19.9419 19.934 19.9276 19.9232 19.9206 19.92 19.9214 19.9248 19.93 19.937 19.9456 19.9555 19.9663 19.9776 19.9888 19.9994 20.0091 20.0177 20.0261 20.0362 20.052 20.0798 20.1283 20.2071 20.3223 20.4696 20.6208 20.7071 
20.309 20.428 20.4006 20.3163 20.2253 20.1497 20.0955 20.0608 20.0404 20.029 20.0223 20.0176 20.0129 20.0076 20.0014 19.9945 19.9872 19.9798 19.9726 19.966 19.9602 19.9553 19.9516 19.9491 19.9478 19.9479 19.9493 19.952 19.9558 19.9609 19.9669 19.9738 19.9813 19.9893 19.9974 20.0051 20.0121 20.0178 20.0218 20.024 20.0253 20.0276 20.0352 20.055 20.0969 20.1727 20.2928 20.4586 20.6502 20.809 
20.1564 20.3391 20.3537 20.2929 20.2118 20.1382 20.0822 20.0443 20.0212 20.008 20.0008 19.9966 19.9935 19.9905 19.9872 19.9835 19.9798 19.9761 19.9728 19.97 19.9678 19.9665 19.966 19.9664 19.9676 19.9696 19.9724 19.976 19.9801 19.9848 19.9899 19.9954 20.0009 20.0065 20.0117 20.0162 20.0197 20.0216 20.0214 20.0191 20.0153 20.0119 20.0131 20.0261 20.0616 20.1334 20.2557 20.436 20.6634 20.891 
20 20.2427 20.3004 20.2661 20.1987 20.1305 20.0753 20.0363 20.0117 19.9977 19.9905 19.987 19.9853 19.9842 19.9831 19.9819 19.9806 19.9795 19.9786 19.9781 19.978 19.9785 19.9795 19.981 19.983 19.9855 19.9884 19.9915 19.9949 19.9985 20.0022 20.0059 20.0095 20.0129 20.0159 20.018 20.0191 20.0185 20.0157 20.0105 20.0034 19.9959 19.9919 19.9988 20.0276 20.0939 20.215 20.4047 20.6614 20.9511 
19.8436 20.1417 20.2423 20.2367 20.1859 20.1257 20.0733 20.0347 20.0095 19.9949 19.9875 19.9845 19.9837 19.9838 19.9842 19.9846 19.9849 19.9852 19.9856 19.9863 19.9871 19.9883 19.9898 19.9915 19.9934 19.9956 19.9979 20.0002 20.0026 20.005 20.0073 20.0095 20.0116 20.0134 20.0148 20.0155 20.0151 20.0132 20.0091 20.0023 19.9931 19.9827 19.9746 19.9756 19.9973 20.0561 20.1725 20.366 20.6444 20.9877 
19.691 20.0382 20.1804 20.2046 20.1724 20.1222 20.0742 20.0369 20.0116 19.9965 19.9888 19.9858 19.9854 19.9862 19.9874 19.9886 19.9897 19.9907 19.9917 19.9928 19.9939 19.9951 19.9965 19.998 19.9995 20.0011 20.0026 20.0041 20.0056 20.0069 20.0082 20.0094 20.0104 20.0112 20.0118 20.0117 20.0107 20.0083 20.0037 19.9963 19.9859 19.9734 19.9617 19.9572 19.9711 20.0207 20.1289 20.3205 20.6127 21 
19.546 19.9346 20.1155 20.1694 20.1571 20.1184 20.0761 20.0409 20.0159 20.0004 19.9922 19.9888 19.9883 19.9893 19.9907 19.9923 19.9937 19.9949 19.9961 19.9972 19.9982 19.9993 20.0003 20.0014 20.0024 20.0034 20.0043 20.0051 20.0059 20.0065 20.0071 20.0076 20.008 20.0083 20.0085 20.0082 20.0071 20.0047 20.0002 19.9928 19.9819 19.9679 19.9531 19.9431 19.9488 19.9877 20.0845 20.2688 20.5668 20.9877 
19.4122 19.833 20.0486 20.1313 20.1392 20.1131 20.0775 20.0451 20.0208 20.005 19.9962 19.9923 19.9914 19.9921 19.9935 19.995 19.9965 19.9977 19.9988 19.9997 20.0006 20.0013 20.0021 20.0027 20.0033 20.0039 20.0043 20.0047 20.005 20.0052 20.0053 20.0055 20.0056 20.0057 20.0058 20.0056 20.0047 20.0027 19.9986 19.9915 19.9806 19.9655 19.948 19.9328 19.93 19.9569 20.0396 20.2115 20.5075 20.9511 
19.2929 19.7358 19.9809 20.0904 20.1186 20.1056 20.0774 20.0486 20.0254 20.0095 20 19.9955 19.994 19.9943 19.9955 19.9968 19.9981 19.9992 20.0002 20.0009 20.0015 20.0021 20.0025 20.0029 20.0032 20.0034 20.0036 20.0036 20.0037 20.0036 20.0036 20.0036 20.0036 20.0037 20.0039 20.0039 20.0034 20.0019 19.9985 19.992 19.9812 19.9655 19.9457 19.9256 19.9142 19.9283 19.9946 20.1498 20.4361 20.891 
19.191 19.6451 19.9138 20.0476 20.0951 20.0956 20.0755 20.0508 20.0291 20.0134 20.0035 19.9982 19.9961 19.996 19.9967 19.9978 19.9989 19.9999 20.0006 20.0012 20.0017 20.002 20.0023 20.0025 20.0026 20.0026 20.0026 20.0026 20.0024 20.0023 20.0022 20.0021 20.0022 20.0024 20.0027 20.003 20.003 20.0021 19.9993 19.9935 19.9832 19.9672 19.9455 19.9209 19.9012 19.9021 19.9502 20.0846 20.3541 20.809 
19.109 19.5632 19.8489 20.0035 20.0693 20.0831 20.0716 20.0515 20.0319 20.0165 20.0063 20.0005 19.9978 19.9971 19.9975 19.9983 19.9992 20 20.0006 20.0011 20.0014 20.0017 20.0018 20.0019 20.0019 20.0019 20.0018 20.0017 20.0015 20.0013 20.0012 20.0012 20.0013 20.0016 20.002 20.0026 20.003 20.0027 20.0007 19.9957 19.9861 19.9702 19.9471 19.9186 19.8909 19.8785 19.9073 20.0175 20.2635 20.7071 
19.0489 19.492 19.7876 19.9593 20.0417 20.0685 20.0657 20.0507 20.0335 20.019 20.0087 20.0023 19.9991 19.9979 19.9979 19.9984 19.9991 19.9998 20.0003 20.0007 20.001 20.0012 20.0013 20.0013 20.0013 20.0012 20.0011 20.001 20.0008 20.0007 20.0006 20.0006 20.0007 20.0011 20.0017 20.0025 20.0032 20.0035 20.0023 19.9983 19.9895 19.974 19.9501 19.9183 19.8834 19.8579 19.8666 19.95 20.1663 20.5878 
19.0123 19.4333 19.7315 19.9159 20.0129 20.052 20.058 20.0484 20.0341 20.0207 20.0105 20.0039 20.0002 19.9985 19.9981 19.9984 19.999 19.9995 20 20.0004 20.0006 20.0008 20.0008 20.0009 20.0008 20.0008 20.0007 20.0006 20.0004 20.0003 20.0002 20.0002 20.0004 20.0008 20.0015 20.0025 20.0036 20.0043 20.0039 20.0008 19.9931 19.9784 19.9542 19.9199 19.8786 19.8408 19.8292 19.8837 20.0651 20.454 
19 19.3886 19.682 19.8746 19.9837 20.0341 20.0487 20.0447 20.0336 20.0217 20.012 20.0052 20.0011 19.9991 19.9984 19.9984 19.9988 19.9992 19.9997 20 20.0003 20.0004 20.0005 20.0005 20.0005 20.0005 20.0004 20.0003 20.0002 20.0001 20 20 20.0002 20.0006 20.0013 20.0024 20.0038 20.005 20.0053 20.0033 19.9969 19.9832 19.9594 19.9235 19.8768 19.8276 19.796 19.8202 19.9622 20.309 
19.0123 19.3588 19.6403 19.8363 19.9548 20.0153 20.0381 20.0399 20.0323 20.0221 20.013 20.0063 20.002 19.9996 19.9986 19.9984 19.9987 19.999 19.9994 19.9997 20 20.0001 20.0002 20.0003 20.0003 20.0003 20.0002 20.0001 20 19.9999 19.9998 19.9998 20 20.0004 20.0012 20.0024 20.0039 20.0056 20.0066 20.0057 20.0006 19.9883 19.9654 19.9288 19.8779 19.8185 19.7676 19.7611 19.8602 20.1564 
19.0489 19.3449 19.6073 19.802 19.927 19.9961 20.0265 20.0341 20.0301 20.022 20.0138 20.0072 20.0028 20.0001 19.9989 19.9985 19.9986 19.9989 19.9992 19.9995 19.9998 20 20.0001 20.0001 20.0002 20.0001 20.0001 20 19.9999 19.9998 19.9998 19.9997 19.9998 20.0002 20.001 20.0022 20.0039 20.0059 20.0076 20.0078 20.0042 19.9937 19.9723 19.9358 19.8819 19.8137 19.745 19.7079 19.7617 20 
19.109 19.347 19.5841 19.7726 19.901 19.9769 20.0143 20.0273 20.0271 20.0212 20.0141 20.008 20.0035 20.0007 19.9992 19.9987 19.9986 19.9988 19.9991 19.9994 19.9997 19.9998 20 20 20.0001 20.0001 20 20 19.9999 19.9998 19.9997 19.9996 19.9997 20 20.0007 20.0019 20.0038 20.0061 20.0084 20.0096 20.0076 19.9992 19.9797 19.9443 19.8888 19.8136 19.7286 19.6618 19.669 19.8436 
19.191 19.3653 19.5711 19.7487 19.8774 19.9583 20.0017 20.0199 20.0235 20.02 20.0141 20.0085 20.0042 20.0013 19.9996 19.9989 19.9987 19.9988 19.9991 19.9993 19.9996 19.9998 19.9999 20 20 20 20 20 19.9999 19.9997 19.9996 19.9995 19.9995 19.9998 20.0004 20.0016 20.0035 20.0061 20.009 20.0112 20.0109 20.0046 19.9876 19.9542 19.8984 19.818 19.7188 19.624 19.5844 19.691 
19.2929 19.3992 19.5686 19.7311 19.8568 19.9407 19.9891 20.0121 20.0193 20.0183 20.0138 20.0089 20.0047 20.0018 20 19.9991 19.9988 19.9989 19.9991 19.9993 19.9995 19.9997 19.9998 19.9999 20 20 20 19.9999 19.9998 19.9997 19.9996 19.9994 19.9994 19.9996 20.0001 20.0012 20.0031 20.0059 20.0093 20.0125 20.0138 20.0099 19.9958 19.9651 19.9105 19.8268 19.716 19.5954 19.5101 19.546 
19.4122 19.4478 19.5768 19.72 19.8398 19.9246 19.9767 20.0039 20.0146 20.0161 20.0132 20.009 20.0052 20.0023 20.0004 19.9994 19.999 19.999 19.9991 19.9993 19.9995 19.9997 19.9998 19.9999 20 20 20 19.9999 19.9998 19.9997 19.9995 19.9994 19.9993 19.9993 19.9998 20.0008 20.0027 20.0055 20.0094 20.0135 20.0164 20.0149 20.0041 19.9769 19.9248 19.84 19.7202 19.5769 19.4479 19.4122 
19.546 19.5101 19.5953 19.7159 19.8267 19.9103 19.9649 19.9956 20.0096 20.0135 20.0122 20.0089 20.0055 20.0027 20.0008 19.9997 19.9992 19.9991 19.9991 19.9993 19.9995 19.9996 19.9998 19.9999 19.9999 20 20 19.9999 19.9998 19.9997 19.9995 19.9993 19.9991 19.9991 19.9995 20.0004 20.0022 20.0051 20.0092 20.0142 20.0186 20.0196 20.0123 19.9893 19.9409 19.857 19.7312 19.5687 19.3992 19.2929 
19.691 19.5844 19.6239 19.7187 19.8178 19.8982 19.9539 19.9873 20.0042 20.0105 20.0108 20.0086 20.0057 20.0031 20.0012 20 19.9994 19.9992 19.9992 19.9993 19.9995 19.9996 19.9998 19.9999 19.9999 20 20 19.9999 19.9999 19.9997 19.9995 19.9993 19.9991 19.999 19.9992 20 20.0016 20.0045 20.0089 20.0145 20.0203 20.0238 20.0202 20.0019 19.9585 19.8776 19.7489 19.5712 19.3653 19.191 
19.8436 19.6689 19.6617 19.7284 19.8134 19.8886 19.944 19.9794 19.9988 20.0072 20.0092 20.008 20.0056 20.0033 20.0015 20.0003 19.9996 19.9993 19.9992 19.9993 19.9995 19.9996 19.9998 19.9999 20 20 20 20 19.9999 19.9998 19.9996 19.9994 19.9991 19.9989 19.999 19.9996 20.001 20.0038 20.0083 20.0145 20.0216 20.0274 20.0276 20.0145 19.9771 19.9012 19.7727 19.5842 19.3471 19.109 
20 19.7616 19.7077 19.7448 19.8135 19.8816 19.9354 19.9719 19.9933 20.0037 20.0073 20.0071 20.0054 20.0034 20.0017 20.0005 19.9997 19.9994 19.9993 19.9994 19.9995 19.9996 19.9998 19.9999 20 20.0001 20.0001 20.0001 20.0001 19.9999 19.9997 19.9995 19.9992 19.9989 19.9988 19.9992 20.0005 20.0031 20.0075 20.0141 20.0223 20.0304 20.0343 20.0268 19.9962 19.9272 19.8021 19.6074 19.3449 19.0489 
20.1564 19.8601 19.761 19.7674 19.8181 19.8775 19.9284 19.965 19.9878 20 20.0051 20.006 20.005 20.0033 20.0018 20.0006 19.9999 19.9995 19.9994 19.9994 19.9996 19.9997 19.9999 20 20.0002 20.0002 20.0003 20.0003 20.0003 20.0002 20 19.9997 19.9993 19.999 19.9988 19.999 19.9999 20.0023 20.0066 20.0133 20.0224 20.0325 20.0401 20.0383 20.0154 19.955 19.8364 19.6403 19.3589 19.0123 
20.309 19.9621 19.82 19.7956 19.8272 19.8763 19.9229 19.9588 19.9826 19.9962 20.0026 20.0047 20.0044 20.0032 20.0018 20.0007 20 19.9997 19.9995 19.9996 19.9997 19.9999 20.0001 20.0003 20.0004 20.0005 20.0006 20.0006 20.0006 20.0005 20.0003 20 19.9996 19.9991 19.9987 19.9987 19.9994 20.0014 20.0054 20.0122 20.0219 20.0338 20.0449 20.0488 20.0342 19.9838 19.8746 19.682 19.3886 19 
20.454 20.0649 19.8835 19.8288 19.8404 19.8781 19.9193 19.9535 19.9776 19.9924 20.0001 20.0031 20.0036 20.0029 20.0018 20.0009 20.0003 19.9999 19.9998 19.9999 20.0001 20.0003 20.0005 20.0007 20.0008 20.001 20.001 20.0011 20.001 20.0009 20.0007 20.0003 19.9999 19.9993 19.9987 19.9984 19.9987 20.0004 20.004 20.0106 20.0208 20.0341 20.0484 20.0579 20.052 20.0129 19.9159 19.7315 19.4333 19.0123 
20.5878 20.1662 19.9497 19.8662 19.8574 19.8827 19.9175 19.9493 19.9731 19.9887 19.9974 20.0015 20.0028 20.0026 20.0019 20.0012 20.0007 20.0004 20.0004 20.0005 20.0007 20.0009 20.0011 20.0013 20.0015 20.0016 20.0016 20.0016 20.0015 20.0014 20.0011 20.0006 20.0001 19.9994 19.9986 19.998 19.9979 19.9991 20.0023 20.0085 20.0188 20.0333 20.0505 20.0655 20.0683 20.0415 19.9591 19.7876 19.492 19.0489 
20.7071 20.2633 20.0172 19.9068 19.8779 19.8902 19.9178 19.9463 19.9693 19.9853 19.995 20 20.0021 20.0025 20.0023 20.0018 20.0015 20.0013 20.0013 20.0014 20.0016 20.0018 20.002 20.0022 20.0023 20.0023 20.0023 20.0022 20.002 20.0017 20.0013 20.0008 20.0001 19.9992 19.9982 19.9973 19.9968 19.9974 20.0001 20.0059 20.0161 20.0314 20.051 20.0712 20.0828 20.069 20.0033 19.8488 19.5631 19.109 
20.809 20.354 20.0843 19.9498 19.9015 19.9006 19.9203 19.9449 19.9666 19.9827 19.9931 19.999 20.0019 20.0029 20.0031 20.0029 20.0028 20.0027 20.0027 20.0028 20.003 20.0031 20.0032 20.0032 20.0032 20.0031 20.0029 20.0026 20.0022 20.0018 20.0012 20.0004 19.9995 19.9985 19.9972 19.996 19.9952 19.9953 19.9973 20.0025 20.0125 20.0283 20.05 20.0749 20.0951 20.0948 20.0473 19.9137 19.645 19.191 
20.891 20.4361 20.1497 19.9945 19.9281 19.914 19.9254 19.9456 19.9655 19.9813 19.9922 19.9989 20.0025 20.0042 20.0047 20.0049 20.0048 20.0047 20.0047 20.0047 20.0047 20.0046 20.0045 20.0043 20.0039 20.0035 20.003 20.0024 20.0018 20.001 20.0002 19.9993 19.9981 19.9969 19.9954 19.994 19.9928 19.9925 19.9939 19.9986 20.0081 20.0242 20.0476 20.0767 20.1051 20.1183 20.0903 19.9808 19.7358 19.2929 
20.9511 20.5077 20.2119 20.0401 19.9575 19.9307 19.9337 19.949 19.9666 19.9818 19.993 20.0002 20.0044 20.0066 20.0075 20.0077 20.0076 20.0074 20.0072 20.0069 20.0065 20.006 20.0054 20.0047 20.0039 20.003 20.0021 20.0011 20 19.999 19.9979 19.9967 19.9955 19.9941 19.9926 19.991 19.9897 19.9891 19.9901 19.9943 20.0034 20.0196 20.0443 20.077 20.1129 20.1393 20.1315 20.0488 19.8332 19.4122 
20.9877 20.5675 20.27 20.0863 19.9899 19.9513 19.9459 19.956 19.971 19.9851 19.996 20.0035 20.008 20.0104 20.0114 20.0115 20.0111 20.0104 20.0096 20.0087 20.0076 20.0064 20.0051 20.0037 20.0022 20.0007 19.9992 19.9977 19.9962 19.9949 19.9936 19.9923 19.9911 19.9898 19.9885 19.9871 19.986 19.9854 19.9864 19.9902 19.9991 20.0152 20.0408 20.0766 20.1193 20.1582 20.1706 20.1164 19.9351 19.546 
21 20.6141 20.3232 20.1328 20.0254 19.9764 19.9629 19.9676 19.9794 19.9918 20.002 20.0092 20.0135 20.0155 20.016 20.0155 20.0143 20.0127 20.0109 20.0089 20.0067 20.0045 20.0022 19.9998 19.9975 19.9953 19.9932 19.9912 19.9895 19.988 19.9868 19.9858 19.985 19.9843 19.9837 19.983 19.9825 19.9825 19.9838 19.9878 19.9965 20.0126 20.0389 20.077 20.1254 20.1757 20.2075 20.1826 20.0394 19.691 
20.9877 20.6469 20.3709 20.1794 20.0645 20.0066 19.9854 19.9844 19.9923 20.0023 20.0108 20.0167 20.0199 20.0209 20.0201 20.0182 20.0155 20.0123 20.0089 20.0053 20.0017 19.9981 19.9945 19.9911 19.988 19.9852 19.9828 19.9808 19.9792 19.9782 19.9777 19.9777 19.978 19.9786 19.9794 19.9802 19.9811 19.9824 19.9847 19.9893 19.9981 20.0142 20.0406 20.08 20.1328 20.1927 20.2425 20.2465 20.1439 19.8436 
20.9511 20.6654 20.4124 20.2258 20.1068 20.0418 20.0134 20.0063 20.0094 20.0156 20.0212 20.0245 20.0254 20.024 20.0208 20.0165 20.0115 20.006 20.0004 19.9948 19.9894 19.9844 19.9797 19.9756 19.9721 19.9693 19.9673 19.9661 19.9658 19.9663 19.9676 19.9696 19.9722 19.9752 19.9785 19.9818 19.985 19.9884 19.9922 19.9978 20.0071 20.0228 20.0487 20.0883 20.1434 20.2106 20.2758 20.3073 20.2463 20 
20.891 20.6691 20.4468 20.2707 20.1512 20.0808 20.0453 20.0312 20.028 20.0287 20.0295 20.0285 20.0253 20.02 20.0132 20.0055 19.9972 19.9889 19.9808 19.9733 19.9664 19.9605 19.9555 19.9516 19.949 19.9476 19.9476 19.9489 19.9514 19.9551 19.9599 19.9657 19.9721 19.979 19.986 19.9928 19.9992 20.0052 20.0111 20.0178 20.0271 20.0419 20.066 20.1038 20.1586 20.2298 20.3071 20.3633 20.3438 20.1564 
20.809 20.657 20.4717 20.3108 20.1938 20.119 20.0761 20.0536 20.0421 20.0351 20.0288 20.0213 20.0121 20.0015 19.9899 19.978 19.9662 19.9552 19.9452 19.9366 19.9296 19.9244 19.921 19.9197 19.9203 19.9229 19.9274 19.9338 19.9418 19.9512 19.9618 19.9733 19.9853 19.9974 20.0092 20.0203 20.0302 20.0388 20.0463 20.0533 20.0616 20.0737 20.0938 20.1269 20.1778 20.2484 20.3333 20.4109 20.4326 20.309 
20.7071 20.627 20.4818 20.3391 20.2261 20.1471 20.0956 20.0628 20.0406 20.0232 20.0073 19.9913 19.9747 19.9578 19.9412 19.9255 19.9113 19.8992 19.8895 19.8825 19.8785 19.8775 19.8795 19.8845 19.8924 19.903 19.9159 19.931 19.9477 19.9658 19.9847 20.0039 20.0229 20.0411 20.0579 20.0729 20.0853 20.0951 20.1021 20.107 20.1113 20.1175 20.1298 20.1536 20.1953 20.2598 20.3465 20.4418 20.5055 20.454 
20.5878 20.574 20.4669 20.3418 20.2325 20.1481 20.0863 20.0407 20.0052 19.9753 19.9483 19.9228 19.8988 19.8767 19.8569 19.8402 19.8272 19.8184 19.8139 19.814 19.8188 19.828 19.8415 19.8589 19.8797 19.9036 19.9299 19.9579 19.9869 20.0163 20.0453 20.0731 20.099 20.1223 20.1423 20.1583 20.1698 20.1765 20.1784 20.176 20.1708 20.1653 20.1637 20.1718 20.1972 20.248 20.3299 20.4391 20.5493 20.5878 
20.454 20.4878 20.4083 20.2956 20.1869 20.095 20.0208 19.9609 19.9111 19.8684 19.8311 19.7984 19.7705 19.7477 19.7307 19.7199 19.7159 19.7188 19.7285 19.7449 19.7677 19.7961 19.8296 19.8673 19.9083 19.9515 19.996 20.0406 20.0842 20.1257 20.1641 20.1984 20.2278 20.2515 20.2686 20.2788 20.2816 20.277 20.265 20.2465 20.223 20.1972 20.173 20.1568 20.1569 20.1844 20.2519 20.3701 20.5365 20.7071 
20.309 20.3479 20.2741 20.1632 20.0504 19.9492 19.8626 19.7896 19.7285 19.6776 19.6362 19.6043 19.582 19.5697 19.5677 19.5761 19.5949 19.6235 19.6613 19.7075 19.7609 19.8203 19.884 19.9506 20.0184 20.0858 20.1511 20.2127 20.269 20.3188 20.3606 20.3936 20.4168 20.4297 20.4318 20.423 20.4034 20.3735 20.334 20.2862 20.2321 20.1744 20.1174 20.0668 20.0315 20.024 20.0632 20.1776 20.408 20.809 
20.1564 20.1126 20.0125 19.8912 19.7715 19.6633 19.57 19.4925 19.4309 19.3853 19.3557 19.3422 19.3449 19.3635 19.3977 19.4467 19.5091 19.5836 19.6684 19.7613 19.8601 19.9623 20.0655 20.1671 20.2645 20.3555 20.4377 20.5091 20.568 20.6129 20.6428 20.6567 20.6545 20.6361 20.602 20.5529 20.49 20.4148 20.3292 20.2354 20.1362 20.0348 19.9352 19.8425 19.7638 19.7099 19.6994 19.7716 20.0233 20.891 
20 19.691 19.546 19.4122 19.2929 19.191 19.109 19.0489 19.0123 19 19.0123 19.0489 19.109 19.191 19.2929 19.4122 19.546 19.691 19.8436 20 20.1564 20.309 20.454 20.5878 20.7071 20.809 20.891 20.9511 20.9877 21 20.9877 20.9511 20.891 20.809 20.7071 20.5878 20.454 20.309 20.1564 20 19.8436 19.691 19.546 19.4122 19.2929 19.191 19.109 19.0489 19.0123 20.9511 
