# vtk DataFile Version 3.0
Temperature distribution on a 2D grid
ASCII

DATASET STRUCTURED_POINTS
DIMENSIONS 50 50 1
ORIGIN 0.0 0.0 0.0
SPACING 0.01 0.01 1.0

POINT_DATA 2500
SCALARS temperature double
LOOKUP_TABLE default
20.9921 19.0005 19.0177 19.0591 19.1237 19.2098 19.3155 19.4379 19.5742 19.721 19.8747 20.0314 20.1874 20.3387 20.4818 20.6129 20.729 20.8271 20.9048 20.9603 20.9921 20.9995 20.9823 20.9409 20.8763 20.7902 20.6845 20.5621 20.4258 20.279 20.1253 19.9686 19.8126 19.6613 19.5182 19.3871 19.271 19.1729 19.0952 19.0397 19.0079 19.0005 19.0177 19.0591 19.1237 19.2098 19.3155 19.4379 19.5742 19.8747 
20.9603 20.0211 19.7329 19.6398 19.6379 19.6845 19.759 19.8499 19.9498 20.0533 20.1564 20.2557 20.3487 20.4327 20.5059 20.5664 20.6129 20.6441 20.6595 20.6586 20.6415 20.6087 20.5608 20.4992 20.4253 20.3409 20.2482 20.1493 20.0468 19.9432 19.841 19.7428 19.6509 19.5676 19.495 19.4348 19.3885 19.3571 19.3415 19.3422 19.3594 19.3934 19.4444 19.5124 19.5974 19.6979 19.8096 19.9213 20.0079 20.0314 
20.9048 20.4221 20.1471 20.0102 19.9613 19.9662 20.003 20.0571 20.1191 20.1825 20.2433 20.2983 20.3458 20.3842 20.4126 20.4306 20.4377 20.4339 20.4193 20.3944 20.3597 20.3163 20.265 20.2073 20.1445 20.0782 20.01 19.9416 19.8747 19.8109 19.7518 19.6989 19.6534 19.6166 19.5892 19.5718 19.5649 19.5685 19.5826 19.6071 19.6419 19.6874 19.7443 19.8142 19.8983 19.9966 20.1041 20.2046 20.2588 20.1874 
20.8271 20.5697 20.3541 20.2116 20.1349 20.1069 20.1108 20.1331 20.1641 20.1971 20.2277 20.2533 20.2723 20.284 20.288 20.2845 20.2735 20.2557 20.2314 20.2014 20.1664 20.1274 20.0853 20.0411 19.996 19.951 19.9072 19.8658 19.8278 19.7941 19.7655 19.7428 19.7266 19.7171 19.7146 19.7191 19.7303 19.7478 19.7713 19.8005 19.8354 19.8768 19.9265 19.9873 20.0626 20.1542 20.2589 20.3599 20.4149 20.3387 
20.729 20.6016 20.439 20.3031 20.2113 20.1601 20.1392 20.1377 20.1466 20.1592 20.1711 20.1797 20.1836 20.1823 20.1757 20.1643 20.1483 20.1284 20.1052 20.0794 20.0517 20.0227 19.9931 19.9639 19.9355 19.9088 19.8844 19.8629 19.8449 19.8308 19.821 19.8157 19.8151 19.8191 19.8276 19.8403 19.8566 19.8761 19.8982 19.9226 19.9498 19.981 20.0188 20.0675 20.1325 20.2183 20.3243 20.437 20.5167 20.4818 
20.6129 20.5756 20.457 20.3324 20.2336 20.1675 20.1297 20.112 20.1065 20.1068 20.1085 20.1089 20.1065 20.1009 20.092 20.0802 20.0659 20.0496 20.032 20.0135 19.9947 19.9761 19.9581 19.9412 19.9258 19.9122 19.901 19.8922 19.8862 19.8831 19.883 19.886 19.892 19.9007 19.9119 19.9252 19.94 19.9557 19.972 19.9885 20.0059 20.0258 20.0516 20.0888 20.1446 20.2262 20.3369 20.4677 20.5847 20.6129 
20.4818 20.5181 20.4398 20.3301 20.2307 20.1564 20.108 20.0801 20.0659 20.0595 20.0565 20.054 20.0504 20.045 20.0378 20.029 20.0189 20.0081 19.9968 19.9855 19.9746 19.9643 19.9549 19.9467 19.9399 19.9347 19.9311 19.9293 19.9293 19.9313 19.9351 19.9407 19.9479 19.9566 19.9664 19.977 19.9877 19.9981 20.0077 20.0164 20.0248 20.0348 20.0504 20.0778 20.1259 20.2044 20.3205 20.471 20.6293 20.729 
20.3387 20.4423 20.4042 20.3133 20.2187 20.1417 20.0875 20.0536 20.0345 20.0248 20.0201 20.0173 20.0148 20.0116 20.0075 20.0025 19.9969 19.991 19.9851 19.9795 19.9743 19.9698 19.9661 19.9632 19.9613 19.9605 19.9607 19.9619 19.9643 19.9676 19.972 19.9772 19.9833 19.9899 19.9969 20.0039 20.0103 20.0158 20.0197 20.0222 20.0236 20.026 20.0334 20.0527 20.0939 20.1691 20.2894 20.4575 20.6555 20.8271 
20.1874 20.3549 20.3584 20.2903 20.2051 20.1296 20.0733 20.0362 20.0144 20.0031 19.9981 19.9961 19.9953 19.9946 19.9935 19.9919 19.99 19.9879 19.9858 19.984 19.9825 19.9814 19.9808 19.9808 19.9812 19.9822 19.9837 19.9857 19.9882 19.9912 19.9945 19.9983 20.0024 20.0066 20.0108 20.0146 20.0177 20.0194 20.0195 20.0175 20.014 20.0108 20.0118 20.0242 20.0588 20.1296 20.2514 20.4331 20.6656 20.9048 
20.0314 20.2597 20.3061 20.264 20.1921 20.1215 20.0658 20.0274 20.0042 19.9921 19.9871 19.986 19.9867 19.9879 19.9891 19.9901 19.9907 19.9911 19.9914 19.9918 19.9923 19.993 19.9938 19.9948 19.996 19.9974 19.9989 20.0005 20.0023 20.0042 20.0062 20.0083 20.0105 20.0127 20.0147 20.0164 20.0172 20.0167 20.0143 20.0096 20.003 19.9958 19.9918 19.998 20.0257 20.0905 20.2103 20.4002 20.6606 20.9603 
19.8747 20.1593 20.2489 20.2352 20.1794 20.1165 20.0633 20.0251 20.0012 19.9884 19.9833 19.9827 19.9843 19.9869 19.9896 19.992 19.9942 19.996 19.9976 19.9991 20.0004 20.0017 20.003 20.0041 20.0053 20.0063 20.0073 20.0081 20.009 20.0097 20.0105 20.0113 20.0121 20.013 20.0137 20.0141 20.0137 20.0121 20.0085 20.0025 19.994 19.984 19.9759 19.9763 19.9966 20.0534 20.1678 20.3602 20.6407 20.9921 
19.721 20.0562 20.1876 20.2036 20.1661 20.1128 20.0637 20.0266 20.0024 19.9891 19.9836 19.983 19.985 19.9882 19.9916 19.9949 19.9978 20.0002 20.0024 20.0042 20.0057 20.0071 20.0082 20.0091 20.0098 20.0104 20.0107 20.0108 20.0109 20.0108 20.0107 20.0106 20.0106 20.0107 20.0108 20.0106 20.0099 20.008 20.0042 19.9977 19.9882 19.9762 19.9646 19.9594 19.9717 20.0189 20.1243 20.3136 20.6062 20.9995 
19.5742 19.9523 20.1231 20.1689 20.1509 20.1088 20.065 20.0298 20.0057 19.9919 19.9858 19.9848 19.9867 19.99 19.9937 19.9972 20.0003 20.0029 20.0052 20.007 20.0084 20.0095 20.0103 20.0109 20.0111 20.0112 20.011 20.0106 20.0101 20.0095 20.0089 20.0084 20.0081 20.0078 20.0078 20.0076 20.007 20.0053 20.0017 19.9954 19.9854 19.9721 19.9574 19.9468 19.9507 19.9868 20.0801 20.261 20.5577 20.9823 
19.4379 19.8501 20.0563 20.131 20.1331 20.1032 20.0659 20.0332 20.0096 19.9954 19.9886 19.9869 19.9884 19.9914 19.9949 19.9984 20.0015 20.0041 20.0061 20.0078 20.009 20.0098 20.0103 20.0105 20.0105 20.0102 20.0097 20.009 20.0082 20.0074 20.0066 20.0059 20.0055 20.0053 20.0053 20.0054 20.0052 20.004 20.001 19.9951 19.9852 19.9709 19.9535 19.9376 19.933 19.9569 20.0355 20.203 20.496 20.9409 
19.3155 19.7516 19.9884 20.0902 20.1124 20.0955 20.0653 20.0359 20.0133 19.9987 19.9912 19.9888 19.9897 19.9922 19.9954 19.9986 20.0015 20.0039 20.0058 20.0072 20.0082 20.0088 20.0091 20.0091 20.0088 20.0083 20.0077 20.0069 20.006 20.0051 20.0044 20.0037 20.0034 20.0034 20.0036 20.0041 20.0044 20.0038 20.0015 19.9962 19.9866 19.9717 19.9521 19.9313 19.9181 19.929 19.9907 20.1406 20.4224 20.8763 
19.2098 19.6593 19.9208 20.0473 20.089 20.0854 20.063 20.0375 20.0162 20.0016 19.9935 19.9903 19.9904 19.9924 19.9952 19.9981 20.0008 20.003 20.0047 20.0059 20.0068 20.0072 20.0074 20.0072 20.0069 20.0063 20.0057 20.0049 20.004 20.0032 20.0026 20.0021 20.0019 20.002 20.0026 20.0034 20.0041 20.0042 20.0027 19.9981 19.989 19.9738 19.9524 19.9272 19.9056 19.9032 19.9466 20.0749 20.3385 20.7902 
19.1237 19.5754 19.8551 20.003 20.0632 20.0728 20.0588 20.0377 20.0182 20.0039 19.9954 19.9915 19.9909 19.9923 19.9946 19.9972 19.9996 20.0016 20.0032 20.0044 20.0051 20.0055 20.0055 20.0054 20.005 20.0045 20.0039 20.0032 20.0025 20.0018 20.0012 20.0009 20.0008 20.0012 20.0019 20.003 20.0042 20.0049 20.004 20.0003 19.9918 19.9767 19.954 19.9249 19.8956 19.8799 19.9037 20.0074 20.2462 20.6845 
19.0591 19.5019 19.7928 19.9585 20.0355 20.0582 20.0528 20.0366 20.0194 20.0057 19.9969 19.9924 19.9912 19.992 19.9939 19.9962 19.9984 20.0002 20.0017 20.0028 20.0034 20.0038 20.0039 20.0038 20.0035 20.003 20.0025 20.0019 20.0013 20.0007 20.0003 20.0001 20.0001 20.0006 20.0015 20.0028 20.0042 20.0054 20.0052 20.0023 19.9947 19.98 19.9565 19.9244 19.8879 19.8595 19.8632 19.9397 20.1479 20.5621 
19.0177 19.4405 19.7355 19.9149 20.0068 20.0419 20.0452 20.0342 20.0197 20.0071 19.9983 19.9933 19.9915 19.9918 19.9933 19.9952 19.9972 19.9989 20.0003 20.0013 20.002 20.0024 20.0025 20.0024 20.0022 20.0019 20.0014 20.001 20.0005 20 19.9996 19.9995 19.9996 20.0001 20.001 20.0024 20.0041 20.0056 20.0061 20.0041 19.9974 19.9835 19.9598 19.9253 19.8828 19.8422 19.8258 19.8733 20.0459 20.4258 
19.0005 19.3929 19.6847 19.8732 19.9777 20.0243 20.0362 20.0309 20.0194 20.0081 19.9995 19.9943 19.992 19.9918 19.9928 19.9945 19.9962 19.9978 19.9992 20.0002 20.0009 20.0013 20.0014 20.0014 20.0013 20.001 20.0007 20.0003 19.9999 19.9995 19.9992 19.999 19.9991 19.9996 20.0005 20.0019 20.0037 20.0055 20.0066 20.0054 19.9999 19.987 19.9638 19.9279 19.8802 19.8286 19.7925 19.8099 19.9426 20.279 
19.0079 19.3602 19.6415 19.8345 19.9491 20.006 20.0262 20.0266 20.0185 20.0087 20.0007 19.9953 19.9926 19.992 19.9927 19.994 19.9955 19.997 19.9983 19.9993 20 20.0004 20.0006 20.0007 20.0006 20.0005 20.0002 19.9999 19.9995 19.9992 19.9989 19.9987 19.9987 19.999 19.9998 20.0012 20.003 20.0051 20.0067 20.0064 20.0021 19.9906 19.9683 19.9319 19.8804 19.8189 19.7642 19.7511 19.8407 20.1253 
19.0397 19.3433 19.6071 19.7998 19.9217 19.9875 20.0155 20.0216 20.017 20.0092 20.0018 19.9965 19.9935 19.9925 19.9928 19.9938 19.9951 19.9965 19.9977 19.9986 19.9993 19.9998 20.0001 20.0002 20.0002 20.0001 19.9999 19.9996 19.9993 19.9989 19.9986 19.9983 19.9982 19.9984 19.9991 20.0003 20.0021 20.0043 20.0063 20.0069 20.0039 19.9942 19.9734 19.9373 19.8832 19.8136 19.7415 19.6983 19.7427 19.9686 
19.0952 19.3424 19.5824 19.7701 19.8961 19.9692 20.0044 20.016 20.0151 20.0093 20.0029 19.9978 19.9946 19.9932 19.9932 19.9939 19.995 19.9962 19.9973 19.9982 19.9989 19.9994 19.9997 19.9998 19.9999 19.9998 19.9996 19.9994 19.9991 19.9987 19.9984 19.998 19.9978 19.9978 19.9982 19.9992 20.0009 20.0032 20.0056 20.0071 20.0055 19.9976 19.9789 19.9441 19.8888 19.8127 19.7251 19.6528 19.651 19.8126 
19.1729 19.3578 19.5679 19.7459 19.873 19.9517 19.9931 20.01 20.0128 20.0093 20.0039 19.9992 19.9959 19.9942 19.9938 19.9942 19.9951 19.9961 19.9971 19.9979 19.9986 19.9991 19.9994 19.9996 19.9997 19.9996 19.9995 19.9993 19.999 19.9986 19.9982 19.9977 19.9974 19.9972 19.9974 19.9981 19.9996 20.0019 20.0046 20.0069 20.0068 20.0011 19.9849 19.9522 19.897 19.8163 19.7153 19.6159 19.5679 19.6613 
19.271 19.389 19.564 19.728 19.8531 19.9353 19.982 20.0037 20.0102 20.009 20.0048 20.0006 19.9973 19.9954 19.9946 19.9948 19.9954 19.9962 19.997 19.9978 19.9984 19.9989 19.9993 19.9995 19.9996 19.9996 19.9995 19.9993 19.999 19.9985 19.998 19.9975 19.997 19.9966 19.9965 19.997 19.9983 20.0005 20.0035 20.0065 20.0078 20.0043 19.9911 19.9613 19.9077 19.8244 19.7126 19.5883 19.4953 19.5182 
19.3871 19.4352 19.5709 19.7168 19.8367 19.9205 19.9712 19.9973 20.0073 20.0084 20.0056 20.0019 19.9988 19.9967 19.9956 19.9954 19.9958 19.9964 19.9971 19.9978 19.9984 19.9988 19.9992 19.9994 19.9995 19.9996 19.9995 19.9993 19.999 19.9985 19.998 19.9973 19.9966 19.996 19.9957 19.9959 19.9969 19.999 20.0022 20.0059 20.0086 20.0075 19.9974 19.9714 19.9206 19.8368 19.7168 19.5709 19.4352 19.3871 
19.5182 19.4953 19.5883 19.7125 19.8243 19.9076 19.9612 19.9909 20.0041 20.0076 20.0062 20.0032 20.0002 19.998 19.9967 19.9962 19.9963 19.9967 19.9973 19.9978 19.9984 19.9988 19.9992 19.9994 19.9996 19.9996 19.9996 19.9994 19.9991 19.9986 19.998 19.9973 19.9964 19.9956 19.995 19.9949 19.9957 19.9976 20.0008 20.0051 20.0092 20.0104 20.0038 19.9821 19.9354 19.8532 19.7281 19.5641 19.389 19.271 
19.6613 19.5678 19.6158 19.7152 19.8162 19.8968 19.952 19.9846 20.0008 20.0065 20.0066 20.0043 20.0015 19.9992 19.9977 19.997 19.9968 19.997 19.9974 19.9979 19.9984 19.9988 19.9992 19.9995 19.9997 19.9997 19.9997 19.9996 19.9993 19.9988 19.9982 19.9974 19.9964 19.9954 19.9946 19.9942 19.9946 19.9962 19.9995 20.0042 20.0095 20.013 20.0101 19.9933 19.9518 19.8731 19.746 19.5679 19.3578 19.1729 
19.8126 19.651 19.6527 19.7249 19.8125 19.8885 19.9438 19.9786 19.9972 20.0051 20.0066 20.0051 20.0027 20.0004 19.9988 19.9978 19.9974 19.9974 19.9977 19.9981 19.9985 19.9989 19.9993 19.9996 19.9998 20 20 19.9999 19.9997 19.9992 19.9986 19.9977 19.9966 19.9954 19.9943 19.9936 19.9937 19.995 19.9981 20.0032 20.0096 20.0153 20.0162 20.0046 19.9694 19.8962 19.7701 19.5824 19.3425 19.0952 
19.9686 19.7426 19.6981 19.7412 19.8133 19.8828 19.9368 19.9729 19.9936 20.0033 20.0063 20.0056 20.0036 20.0014 19.9996 19.9985 19.9979 19.9977 19.9979 19.9982 19.9986 19.9991 19.9995 19.9998 20.0001 20.0003 20.0004 20.0004 20.0002 19.9998 19.9991 19.9982 19.9971 19.9957 19.9944 19.9933 19.993 19.994 19.9969 20.0022 20.0095 20.0173 20.0218 20.0157 19.9876 19.9217 19.7999 19.6071 19.3433 19.0397 
20.1253 19.8406 19.7508 19.7638 19.8184 19.8798 19.9312 19.9676 19.9898 20.0012 20.0055 20.0058 20.0042 20.0021 20.0003 19.999 19.9983 19.998 19.9981 19.9984 19.9988 19.9993 19.9998 20.0002 20.0006 20.0009 20.0011 20.0011 20.001 20.0006 20 19.999 19.9978 19.9963 19.9947 19.9934 19.9927 19.9933 19.9959 20.0011 20.0091 20.0188 20.0268 20.0264 20.0061 19.9492 19.8345 19.6415 19.3602 19.0079 
20.279 19.9425 19.8096 19.792 19.8279 19.8794 19.9269 19.9627 19.9859 19.9987 20.0043 20.0054 20.0044 20.0026 20.0008 19.9995 19.9987 19.9984 19.9984 19.9987 19.9992 19.9997 20.0003 20.0008 20.0013 20.0017 20.002 20.0021 20.0021 20.0017 20.0011 20.0001 19.9988 19.9972 19.9954 19.9937 19.9926 19.9927 19.9949 20 20.0085 20.0197 20.0311 20.0363 20.0244 19.9778 19.8732 19.6847 19.3929 19.0005 
20.4258 20.0456 19.8728 19.8251 19.8413 19.8817 19.9241 19.9585 19.982 19.9959 20.0026 20.0046 20.0042 20.0027 20.0011 19.9998 19.999 19.9987 19.9988 19.9991 19.9997 20.0004 20.0011 20.0017 20.0023 20.0029 20.0033 20.0035 20.0034 20.0032 20.0025 20.0015 20.0001 19.9984 19.9963 19.9943 19.9927 19.9923 19.994 19.9987 20.0074 20.02 20.0344 20.0452 20.0419 20.0068 19.9148 19.7355 19.4405 19.0177 
20.5621 20.1476 19.9391 19.8623 19.8583 19.8866 19.9228 19.9548 19.9782 19.9928 20.0005 20.0035 20.0037 20.0027 20.0013 20.0002 19.9995 19.9992 19.9994 19.9999 20.0005 20.0013 20.0022 20.003 20.0037 20.0044 20.0048 20.0051 20.0051 20.0048 20.0042 20.0031 20.0016 19.9997 19.9974 19.995 19.9929 19.992 19.993 19.9973 20.006 20.0195 20.0365 20.0527 20.0581 20.0354 19.9584 19.7927 19.5018 19.0591 
20.6845 20.2459 20.0067 19.9027 19.8786 19.894 19.9231 19.952 19.9747 19.9897 19.9983 20.0021 20.003 20.0025 20.0016 20.0007 20.0001 20.0001 20.0004 20.001 20.0018 20.0027 20.0037 20.0046 20.0055 20.0062 20.0067 20.007 20.007 20.0066 20.0059 20.0047 20.0031 20.0009 19.9984 19.9956 19.9931 19.9915 19.9919 19.9955 20.004 20.0181 20.0375 20.0585 20.0725 20.0629 20.0028 19.8549 19.5753 19.1237 
20.7902 20.3381 20.0742 19.9455 19.9018 19.904 19.9253 19.9504 19.9717 19.9869 19.9961 20.0008 20.0025 20.0026 20.0021 20.0015 20.0013 20.0014 20.0018 20.0026 20.0035 20.0046 20.0056 20.0066 20.0075 20.0082 20.0086 20.0088 20.0087 20.0083 20.0074 20.0061 20.0042 20.0019 19.999 19.9959 19.9929 19.9907 19.9903 19.9933 20.0013 20.0158 20.037 20.0626 20.0849 20.0886 20.047 19.9206 19.6592 19.2098 
20.8763 20.4221 20.1399 19.9898 19.9278 19.9167 19.9297 19.9504 19.97 19.9849 19.9946 20.0001 20.0026 20.0033 20.0033 20.0031 20.0031 20.0033 20.0039 20.0047 20.0057 20.0068 20.0078 20.0087 20.0095 20.01 20.0103 20.0103 20.01 20.0093 20.0082 20.0067 20.0046 20.002 19.9989 19.9955 19.9921 19.9894 19.9884 19.9906 19.9981 20.0126 20.0353 20.0648 20.0951 20.1121 20.0901 19.9883 19.7516 19.3155 
20.9409 20.4959 20.2028 20.0351 19.9564 19.9324 19.9369 19.9528 19.9701 19.9845 19.9945 20.0005 20.0037 20.005 20.0054 20.0055 20.0056 20.006 20.0065 20.0072 20.0081 20.0089 20.0097 20.0103 20.0108 20.011 20.011 20.0107 20.01 20.0091 20.0077 20.0059 20.0037 20.001 19.9977 19.9942 19.9905 19.9874 19.9859 19.9876 19.9945 20.009 20.0327 20.0656 20.1032 20.1332 20.1312 20.0565 19.8502 19.4379 
20.9823 20.558 20.2616 20.081 19.9878 19.9518 19.9478 19.9585 19.9732 19.9865 19.9964 20.0028 20.0064 20.0081 20.0087 20.0088 20.0089 20.0089 20.0091 20.0095 20.0098 20.0102 20.0104 20.0105 20.0105 20.0102 20.0097 20.009 20.008 20.0067 20.0052 20.0033 20.001 19.9984 19.9953 19.9918 19.9883 19.9852 19.9835 19.9849 19.9913 20.0056 20.0301 20.0658 20.1098 20.1521 20.1701 20.124 19.9528 19.5742 
20.9995 20.6073 20.3157 20.1272 20.0224 19.9756 19.9634 19.9686 19.9801 19.9919 20.0012 20.0074 20.011 20.0125 20.0128 20.0125 20.0119 20.0113 20.0107 20.0102 20.0097 20.0091 20.0085 20.0079 20.0071 20.0062 20.0051 20.004 20.0028 20.0014 19.9999 19.9983 19.9964 19.9942 19.9917 19.989 19.9861 19.9835 19.9822 19.9836 19.9899 20.004 20.0289 20.0667 20.1161 20.1694 20.2066 20.1899 20.0574 19.721 
20.9921 20.643 20.3645 20.1738 20.0606 20.0045 19.9845 19.984 19.9917 20.0011 20.0089 20.0141 20.0167 20.0173 20.0166 20.0151 20.0132 20.0112 20.0092 20.0072 20.0053 20.0036 20.0019 20.0002 19.9987 19.9973 19.9959 19.9947 19.9937 19.9927 19.9919 19.9911 19.9903 19.9895 19.9884 19.9871 19.9856 19.9843 19.984 19.9859 19.9924 20.0064 20.0313 20.0703 20.1238 20.1863 20.2411 20.2532 20.1616 19.8747 
20.9603 20.6644 20.4075 20.2204 20.1025 20.0388 20.0114 20.0047 20.0077 20.0135 20.0185 20.0213 20.0218 20.0202 20.0173 20.0136 20.0095 20.0053 20.0012 19.9973 19.9938 19.9906 19.9878 19.9854 19.9835 19.9821 19.9811 19.9807 19.9807 19.9813 19.9822 19.9834 19.9849 19.9864 19.9878 19.989 19.9899 19.9908 19.9921 19.9952 20.0021 20.0159 20.0402 20.0792 20.1348 20.2041 20.274 20.3131 20.2633 20.0314 
20.9048 20.6712 20.4437 20.266 20.1469 20.0774 20.0427 20.029 20.0258 20.0263 20.0267 20.0253 20.0218 20.0166 20.0101 20.0031 19.9958 19.9888 19.9822 19.9763 19.9713 19.9671 19.9639 19.9617 19.9605 19.9604 19.9613 19.9632 19.966 19.9697 19.9741 19.979 19.9843 19.9897 19.995 19.9998 20.004 20.0077 20.0113 20.0157 20.0228 20.0358 20.0584 20.0955 20.1506 20.2235 20.3049 20.3683 20.3598 20.1874 
20.8271 20.6624 20.4708 20.3076 20.1903 20.116 20.0737 20.0517 20.0403 20.0331 20.0265 20.0187 20.0094 19.9989 19.9876 19.9764 19.9655 19.9557 19.947 19.9399 19.9345 19.9308 19.929 19.9291 19.9309 19.9346 19.9399 19.9467 19.9549 19.9642 19.9744 19.9851 19.9961 20.0069 20.0172 20.0265 20.0346 20.0412 20.0467 20.0518 20.0582 20.0687 20.0876 20.1199 20.1708 20.2429 20.3312 20.4152 20.4473 20.3387 
20.729 20.6359 20.4839 20.3382 20.2245 20.1457 20.0947 20.0622 20.0401 20.0226 20.0064 19.9901 19.9734 19.9564 19.94 19.9247 19.9112 19.8999 19.8912 19.8854 19.8825 19.8827 19.8859 19.892 19.9008 19.9122 19.9257 19.9412 19.9581 19.976 19.9946 20.0132 20.0315 20.0487 20.0644 20.078 20.089 20.0973 20.1029 20.1063 20.1092 20.1142 20.1255 20.1487 20.1903 20.2558 20.3453 20.446 20.5189 20.4818 
20.6129 20.5867 20.4727 20.3445 20.2341 20.1497 20.0882 20.0428 20.0072 19.9771 19.9496 19.9237 19.8992 19.8767 19.8567 19.8399 19.8271 19.8185 19.8145 19.8152 19.8206 19.8305 19.8447 19.8628 19.8843 19.9088 19.9355 19.9639 19.9931 20.0226 20.0516 20.0792 20.1048 20.1276 20.1471 20.1624 20.1732 20.1791 20.1802 20.1771 20.1711 20.1649 20.1626 20.1703 20.1956 20.2469 20.3305 20.4438 20.5615 20.6129 
20.4818 20.5046 20.4189 20.3031 20.1932 20.101 20.0267 19.9666 19.9163 19.873 19.8347 19.801 19.772 19.7483 19.7303 19.7189 19.7142 19.7166 19.7261 19.7424 19.7652 19.7938 19.8276 19.8657 19.9071 19.9509 19.996 20.0411 20.0853 20.1274 20.1664 20.2012 20.2311 20.2551 20.2726 20.283 20.286 20.2814 20.2695 20.251 20.2274 20.2013 20.1769 20.1603 20.1601 20.1877 20.2559 20.3763 20.548 20.729 
20.3387 20.3691 20.2904 20.1769 20.0627 19.9606 19.8732 19.7993 19.7368 19.6843 19.6412 19.6073 19.5831 19.5688 19.565 19.5717 19.5889 19.6163 19.6531 19.6986 19.7516 19.8107 19.8745 19.9415 20.01 20.0782 20.1445 20.2073 20.2651 20.3163 20.3597 20.3943 20.4191 20.4335 20.437 20.4296 20.4112 20.3823 20.3437 20.2966 20.2429 20.1854 20.1282 20.0772 20.0413 20.033 20.0717 20.1863 20.419 20.8271 
20.1874 20.1385 20.0351 19.9115 19.79 19.6799 19.5845 19.5046 19.4403 19.3917 19.359 19.3422 19.3417 19.3572 19.3885 19.4348 19.4949 19.5675 19.6508 19.7426 19.8409 19.9431 20.0468 20.1493 20.2481 20.3409 20.4253 20.4992 20.5608 20.6087 20.6415 20.6586 20.6594 20.6439 20.6125 20.5659 20.5052 20.4318 20.3476 20.2548 20.1561 20.0547 19.9546 19.8609 19.7808 19.725 19.7124 19.7826 20.0334 20.9048 
20.0314 19.721 19.5742 19.4379 19.3155 19.2098 19.1237 19.0591 19.0177 19.0005 19.0079 19.0397 19.0952 19.1729 19.271 19.3871 19.5182 19.6613 19.8126 19.9686 20.1253 20.279 20.4258 20.5621 20.6845 20.7902 20.8763 20.9409 20.9823 20.9995 20.9921 20.9603 20.9048 20.8271 20.729 20.6129 20.4818 20.3387 20.1874 20.0314 19.8747 19.721 19.5742 19.4379 19.3155 19.2098 19.1237 19.0591 19.0177 20.9603 
