# vtk DataFile Version 3.0
Temperature distribution on a 2D grid
ASCII

DATASET STRUCTURED_POINTS
DIMENSIONS 50 50 1
ORIGIN 0.0 0.0 0.0
SPACING 0.01 0.01 1.0

POINT_DATA 2500
SCALARS temperature double
LOOKUP_TABLE default
20.729 19.1729 19.0952 19.0397 19.0079 19.0005 19.0177 19.0591 19.1237 19.2098 19.3155 19.4379 19.5742 19.721 19.8747 20.0314 20.1874 20.3387 20.4818 20.6129 20.729 20.8271 20.9048 20.9603 20.9921 20.9995 20.9823 20.9409 20.8763 20.7902 20.6845 20.5621 20.4258 20.279 20.1253 19.9686 19.8126 19.6613 19.5182 19.3871 19.271 19.1729 19.0952 19.0397 19.0079 19.0005 19.0177 19.0591 19.1237 19.3155 
20.6129 19.9001 19.6314 19.5029 19.4485 19.4402 19.4645 19.513 19.58 19.6611 19.7526 19.8511 19.9536 20.0573 20.1595 20.2576 20.3493 20.4323 20.5046 20.5644 20.6103 20.6412 20.6563 20.6552 20.638 20.6051 20.5573 20.4958 20.4221 20.338 20.2455 20.1471 20.0449 19.9417 19.8398 19.7419 19.6502 19.5671 19.4947 19.4352 19.3902 19.3615 19.3505 19.3579 19.3834 19.4241 19.4723 19.5125 19.5154 19.4379 
20.4818 20.1965 19.9903 19.8607 19.7925 19.7702 19.7811 19.8154 19.8656 19.9258 19.9915 20.0592 20.1261 20.1901 20.2492 20.3019 20.347 20.3833 20.4101 20.4267 20.4328 20.4282 20.4131 20.3878 20.3529 20.3094 20.2583 20.2008 20.1384 20.0726 20.005 19.9372 19.871 19.8079 19.7495 19.6971 19.652 19.6155 19.5885 19.5723 19.5679 19.5767 19.5997 19.6376 19.6893 19.75 19.8069 19.8339 19.7831 19.5742 
20.3387 20.2971 20.1889 20.0882 20.0187 19.9831 19.976 19.9901 20.0185 20.0551 20.0952 20.1355 20.1735 20.2073 20.2359 20.2583 20.2741 20.2828 20.2845 20.279 20.2666 20.2476 20.2225 20.192 20.1567 20.1176 20.0756 20.0318 19.9872 19.9429 19.9 19.8596 19.8226 19.7899 19.7623 19.7403 19.7245 19.7153 19.7134 19.7192 19.7338 19.7585 19.7947 19.8436 19.9046 19.9723 20.0322 20.0533 19.9795 19.721 
20.1874 20.2981 20.2746 20.2091 20.1457 20.1013 20.0786 20.0743 20.0829 20.0994 20.1191 20.139 20.1568 20.1709 20.1807 20.1857 20.1857 20.1808 20.1713 20.1575 20.1397 20.1184 20.0942 20.0677 20.0396 20.0105 19.9811 19.9523 19.9246 19.8988 19.8755 19.8553 19.8386 19.8257 19.817 19.8125 19.8124 19.8167 19.8256 19.8396 19.8598 19.8877 19.9254 19.9752 20.0375 20.108 20.1727 20.1999 20.1315 19.8747 
20.0314 20.245 20.2885 20.2564 20.203 20.1548 20.1212 20.1028 20.0966 20.0983 20.1039 20.1105 20.1159 20.1189 20.1188 20.1155 20.1089 20.0993 20.087 20.0725 20.056 20.0382 20.0194 20.0001 19.9809 19.9621 19.9443 19.9279 19.9133 19.9009 19.8909 19.8836 19.8791 19.8774 19.8786 19.8825 19.8888 19.8976 19.9089 19.9232 19.9417 19.9664 20.0002 20.0465 20.1071 20.1799 20.253 20.2967 20.2539 20.0314 
19.8747 20.1627 20.2597 20.2583 20.2174 20.1697 20.13 20.1026 20.0865 20.0785 20.0753 20.0742 20.0731 20.0709 20.0669 20.0609 20.053 20.0435 20.0327 20.0208 20.0084 19.9958 19.9832 19.9711 19.9597 19.9493 19.9402 19.9325 19.9266 19.9225 19.9203 19.9201 19.9218 19.9253 19.9305 19.9369 19.9444 19.9529 19.9623 19.9732 19.9869 20.006 20.0339 20.0751 20.1335 20.2091 20.2933 20.3601 20.3555 20.1874 
19.721 20.0654 20.2071 20.2344 20.2081 20.1648 20.1233 20.091 20.069 20.0554 20.0474 20.0424 20.0386 20.0346 20.03 20.0243 20.0177 20.0103 20.0025 19.9943 19.9863 19.9785 19.9712 19.9647 19.959 19.9544 19.9509 19.9487 19.9478 19.9481 19.9498 19.9527 19.9568 19.9617 19.9674 19.9734 19.9796 19.9856 19.9915 19.9979 20.0063 20.0193 20.0412 20.0773 20.1332 20.2118 20.3082 20.4009 20.4408 20.3387 
19.5742 19.962 20.1424 20.1973 20.1873 20.1514 20.1115 20.0777 20.0529 20.0363 20.0259 20.0194 20.0148 20.011 20.0072 20.0031 19.9986 19.9938 19.989 19.9842 19.9797 19.9757 19.9722 19.9694 19.9674 19.9663 19.966 19.9665 19.9679 19.9702 19.9732 19.9769 19.9811 19.9856 19.9903 19.9947 19.9986 20.0017 20.0041 20.0063 20.0098 20.0174 20.0337 20.0649 20.1182 20.1993 20.3071 20.4257 20.5119 20.4818 
19.4379 19.8582 20.0723 20.1539 20.1615 20.1354 20.0997 20.0668 20.0413 20.0236 20.0122 20.0053 20.0009 19.9979 19.9954 19.9929 19.9904 19.9879 19.9855 19.9832 19.9812 19.9796 19.9786 19.978 19.978 19.9786 19.9797 19.9814 19.9835 19.9861 19.9891 19.9924 19.9958 19.9992 20.0024 20.005 20.0068 20.0075 20.007 20.0058 20.0053 20.0083 20.0196 20.046 20.0963 20.1785 20.2958 20.4381 20.5694 20.6129 
19.3155 19.7581 20.0008 20.1078 20.1338 20.1192 20.0897 20.0594 20.0346 20.0168 20.0052 19.9982 19.9943 19.9921 19.9907 19.9896 19.9887 19.9878 19.987 19.9863 19.9859 19.9858 19.9859 19.9865 19.9873 19.9885 19.9901 19.9918 19.9939 19.9961 19.9985 20.0009 20.0033 20.0056 20.0074 20.0086 20.0088 20.0076 20.0051 20.0014 19.9978 19.997 20.0038 20.0256 20.0719 20.1535 20.2774 20.4398 20.613 20.729 
19.2098 19.6644 19.9306 20.0609 20.1055 20.1034 20.0814 20.0549 20.0317 20.0143 20.0028 19.996 19.9924 19.9907 19.9901 19.99 19.99 19.9901 19.9903 19.9906 19.991 19.9915 19.9922 19.9931 19.9942 19.9954 19.9968 19.9983 19.9998 20.0014 20.0031 20.0047 20.0062 20.0075 20.0083 20.0085 20.0077 20.0055 20.0016 19.9963 19.9904 19.9865 19.9892 20.0059 20.0475 20.1263 20.2536 20.4318 20.642 20.8271 
19.1237 19.5796 19.8631 20.0143 20.0767 20.0877 20.074 20.0521 20.0311 20.0146 20.0034 19.9966 19.9931 19.9917 19.9915 19.9918 19.9924 19.9931 19.9937 19.9944 19.9951 19.9959 19.9967 19.9976 19.9985 19.9995 20.0005 20.0016 20.0026 20.0036 20.0046 20.0056 20.0064 20.0071 20.0074 20.007 20.0057 20.0029 19.9984 19.992 19.9845 19.9779 19.9767 19.9883 20.0239 20.0979 20.2251 20.4143 20.6558 20.9048 
19.0591 19.5056 19.7999 19.9685 20.0476 20.0716 20.0666 20.0499 20.0316 20.0163 20.0054 19.9986 19.995 19.9936 19.9935 19.994 19.9948 19.9956 19.9965 19.9972 19.998 19.9987 19.9994 20.0001 20.0008 20.0015 20.0022 20.0028 20.0034 20.004 20.0046 20.0051 20.0055 20.0058 20.0058 20.0053 20.0038 20.0009 19.9961 19.9892 19.9804 19.9716 19.9666 19.9728 20.0016 20.0687 20.1924 20.3875 20.654 20.9603 
19.0177 19.444 19.7422 19.9242 20.0183 20.0547 20.0586 20.0475 20.0323 20.0183 20.0078 20.001 19.9972 19.9956 19.9954 19.9958 19.9966 19.9975 19.9983 19.999 19.9997 20.0003 20.0009 20.0014 20.0018 20.0022 20.0026 20.0029 20.0032 20.0035 20.0038 20.004 20.0042 20.0044 20.0043 20.0038 20.0025 19.9997 19.995 19.9879 19.9783 19.9675 19.9589 19.9595 19.9806 20.0391 20.1561 20.3519 20.6364 20.9921 
19.0005 19.3962 19.6911 19.8822 19.9889 20.037 20.0496 20.0443 20.0324 20.02 20.0101 20.0033 19.9993 19.9974 19.9969 19.9972 19.9979 19.9986 19.9993 20 20.0005 20.001 20.0014 20.0017 20.002 20.0022 20.0024 20.0025 20.0026 20.0027 20.0028 20.0029 20.003 20.0032 20.0032 20.0029 20.0018 19.9994 19.9949 19.9878 19.9776 19.9652 19.9532 19.9481 19.961 20.0094 20.1165 20.3081 20.6033 20.9995 
19.0079 19.3634 19.6477 19.8433 19.96 20.0185 20.0396 20.0401 20.0317 20.0212 20.0119 20.0052 20.001 19.9989 19.9981 19.9981 19.9986 19.9992 19.9998 20.0003 20.0008 20.0011 20.0014 20.0016 20.0017 20.0018 20.0019 20.0019 20.0019 20.0019 20.0019 20.002 20.0021 20.0023 20.0025 20.0024 20.0016 19.9996 19.9956 19.9887 19.9782 19.9644 19.9494 19.9387 19.943 19.9799 20.0744 20.2569 20.5556 20.9823 
19.0397 19.3463 19.613 19.8083 19.9321 19.9995 20.0285 20.0348 20.0301 20.0216 20.0133 20.0067 20.0024 20 19.9989 19.9987 19.999 19.9994 19.9999 20.0003 20.0007 20.001 20.0011 20.0013 20.0013 20.0014 20.0013 20.0013 20.0012 20.0012 20.0012 20.0013 20.0015 20.0017 20.0021 20.0022 20.0018 20.0003 19.9968 19.9902 19.9797 19.9648 19.9471 19.931 19.9266 19.9511 20.0307 20.1996 20.4942 20.9409 
19.0952 19.3453 19.5878 19.7779 19.9059 19.9805 20.0166 20.0286 20.0276 20.0213 20.014 20.0078 20.0035 20.0008 19.9995 19.999 19.9991 19.9994 19.9998 20.0002 20.0005 20.0007 20.0008 20.0009 20.0009 20.0009 20.0009 20.0008 20.0008 20.0007 20.0007 20.0008 20.001 20.0014 20.0018 20.0022 20.0022 20.0012 19.9982 19.9922 19.9818 19.9663 19.9462 19.9252 19.9121 19.9236 19.9863 20.1374 20.4207 20.8763 
19.1729 19.3603 19.5728 19.753 19.8818 19.9619 20.0042 20.0214 20.0243 20.0203 20.0143 20.0086 20.0043 20.0015 19.9999 19.9993 19.9992 19.9994 19.9997 20 20.0002 20.0004 20.0005 20.0006 20.0006 20.0006 20.0006 20.0005 20.0004 20.0004 20.0004 20.0005 20.0007 20.0011 20.0017 20.0023 20.0027 20.0021 19.9998 19.9944 19.9844 19.9686 19.9466 19.9212 19.8998 19.8979 19.9422 20.0718 20.3368 20.7902 
19.271 19.3912 19.5682 19.7341 19.8607 19.9441 19.9916 20.0137 20.0203 20.0187 20.0141 20.009 20.0049 20.002 20.0003 19.9995 19.9992 19.9993 19.9995 19.9998 20 20.0002 20.0003 20.0003 20.0004 20.0004 20.0003 20.0003 20.0002 20.0001 20.0001 20.0002 20.0005 20.001 20.0016 20.0024 20.0031 20.0031 20.0014 19.9968 19.9874 19.9716 19.9484 19.9191 19.8899 19.8748 19.8995 20.0044 20.2447 20.6845 
19.3871 19.4369 19.5743 19.7217 19.8429 19.9277 19.9791 20.0056 20.0157 20.0166 20.0135 20.0092 20.0053 20.0024 20.0006 19.9996 19.9993 19.9992 19.9994 19.9996 19.9998 20 20.0001 20.0002 20.0002 20.0002 20.0002 20.0001 20 20 20 20.0001 20.0003 20.0008 20.0015 20.0025 20.0034 20.0039 20.0029 19.9992 19.9907 19.9753 19.9513 19.919 19.8827 19.8547 19.8592 19.9369 20.1464 20.5621 
19.5182 19.4966 19.5908 19.7161 19.8289 19.913 19.9672 19.9972 20.0106 20.0141 20.0125 20.0091 20.0056 20.0028 20.0009 19.9998 19.9993 19.9992 19.9993 19.9995 19.9997 19.9998 20 20 20.0001 20.0001 20.0001 20 19.9999 19.9999 19.9999 19.9999 20.0002 20.0006 20.0014 20.0025 20.0037 20.0046 20.0044 20.0016 19.9941 19.9796 19.9555 19.9208 19.8783 19.8381 19.8224 19.8709 20.0446 20.4258 
19.6613 19.5686 19.6174 19.7175 19.8192 19.9004 19.956 19.989 20.0053 20.0111 20.0112 20.0087 20.0057 20.0031 20.0012 20 19.9995 19.9993 19.9993 19.9994 19.9996 19.9997 19.9999 19.9999 20 20 20 19.9999 19.9999 19.9998 19.9998 19.9998 20 20.0005 20.0013 20.0024 20.0038 20.0052 20.0057 20.0039 19.9977 19.9843 19.9606 19.9245 19.8769 19.8255 19.7899 19.8081 19.9417 20.279 
19.8126 19.6513 19.6534 19.7259 19.8139 19.8903 19.9459 19.9809 19.9999 20.0079 20.0096 20.0081 20.0057 20.0033 20.0015 20.0003 19.9996 19.9993 19.9993 19.9994 19.9995 19.9997 19.9998 19.9999 19.9999 20 19.9999 19.9999 19.9998 19.9997 19.9997 19.9997 19.9999 20.0003 20.0011 20.0023 20.0039 20.0056 20.0068 20.0061 20.0013 19.9894 19.9667 19.9301 19.8785 19.8171 19.7626 19.75 19.8402 20.1253 
19.9686 19.7425 19.6979 19.741 19.8131 19.8828 19.9371 19.9734 19.9944 20.0045 20.0077 20.0074 20.0055 20.0034 20.0017 20.0005 19.9998 19.9994 19.9993 19.9994 19.9995 19.9996 19.9998 19.9999 19.9999 19.9999 19.9999 19.9999 19.9998 19.9997 19.9996 19.9996 19.9997 20.0001 20.0008 20.0021 20.0038 20.0059 20.0077 20.0081 20.0048 19.9947 19.9736 19.9373 19.883 19.8133 19.7411 19.698 19.7426 19.9686 
20.1253 19.8401 19.7499 19.7625 19.817 19.8782 19.9298 19.9664 19.989 20.0009 20.0057 20.0064 20.0052 20.0035 20.0019 20.0007 19.9999 19.9995 19.9994 19.9994 19.9995 19.9996 19.9998 19.9998 19.9999 19.9999 19.9999 19.9999 19.9998 19.9997 19.9996 19.9995 19.9996 19.9999 20.0006 20.0018 20.0037 20.006 20.0085 20.0099 20.0082 20.0002 19.9812 19.9461 19.8905 19.814 19.726 19.6535 19.6513 19.8126 
20.279 19.9416 19.808 19.7898 19.8253 19.8766 19.9242 19.9603 19.9839 19.9973 20.0035 20.0052 20.0048 20.0034 20.002 20.0008 20.0001 19.9996 19.9995 19.9995 19.9995 19.9996 19.9998 19.9999 19.9999 20 20 19.9999 19.9999 19.9997 19.9996 19.9995 19.9995 19.9998 20.0004 20.0015 20.0034 20.006 20.009 20.0115 20.0114 20.0056 19.9892 19.9562 19.9006 19.8193 19.7177 19.6175 19.5687 19.6613 
20.4258 20.0445 19.8708 19.8222 19.8379 19.878 19.9205 19.9551 19.9792 19.9937 20.0011 20.0039 20.0041 20.0032 20.002 20.001 20.0002 19.9998 19.9996 19.9995 19.9996 19.9997 19.9998 19.9999 20 20 20.0001 20 19.9999 19.9998 19.9997 19.9995 19.9995 19.9996 20.0001 20.0012 20.0031 20.0059 20.0094 20.0128 20.0143 20.0109 19.9975 19.9674 19.9132 19.8291 19.7162 19.5909 19.4966 19.5182 
20.5621 20.1464 19.9367 19.859 19.8544 19.8824 19.9186 19.9509 19.9749 19.9902 19.9987 20.0024 20.0034 20.0029 20.002 20.0011 20.0004 19.9999 19.9997 19.9996 19.9997 19.9998 19.9999 20 20.0001 20.0002 20.0002 20.0002 20.0001 20 19.9998 19.9996 19.9995 19.9995 19.9999 20.0009 20.0027 20.0056 20.0095 20.0137 20.0169 20.0159 20.0058 19.9793 19.9278 19.843 19.7218 19.5743 19.437 19.3871 
20.6845 20.2446 20.0042 19.8992 19.8745 19.8895 19.9187 19.9479 19.9711 19.9869 19.9962 20.0009 20.0025 20.0026 20.0019 20.0012 20.0005 20.0001 19.9999 19.9998 19.9999 20 20.0001 20.0002 20.0003 20.0004 20.0004 20.0004 20.0003 20.0002 20 19.9997 19.9995 19.9995 19.9997 20.0006 20.0023 20.0051 20.0093 20.0143 20.0189 20.0204 20.0138 19.9917 19.9442 19.8608 19.7341 19.5683 19.3912 19.271 
20.7902 20.3367 20.0716 19.9419 19.8976 19.8994 19.9207 19.9461 19.968 19.9838 19.9938 19.9992 20.0016 20.0021 20.0018 20.0013 20.0007 20.0003 20.0001 20.0001 20.0002 20.0003 20.0004 20.0005 20.0006 20.0007 20.0007 20.0007 20.0006 20.0004 20.0002 19.9999 19.9996 19.9994 19.9995 20.0001 20.0017 20.0044 20.0087 20.0144 20.0204 20.0244 20.0215 20.0042 19.9619 19.8819 19.753 19.5728 19.3603 19.1729 
20.8763 20.4206 20.1372 19.9859 19.9232 19.9116 19.9247 19.9456 19.9657 19.9812 19.9916 19.9977 20.0007 20.0017 20.0018 20.0015 20.0011 20.0007 20.0006 20.0006 20.0006 20.0007 20.0008 20.001 20.001 20.0011 20.0011 20.001 20.0009 20.0007 20.0004 20 19.9996 19.9993 19.9992 19.9996 20.0009 20.0035 20.0078 20.014 20.0213 20.0276 20.0285 20.0165 19.9804 19.9058 19.7779 19.5878 19.3453 19.0952 
20.9409 20.4941 20.1994 20.0304 19.9507 19.9261 19.9305 19.9465 19.9643 19.9791 19.9897 19.9963 19.9999 20.0015 20.0019 20.0019 20.0016 20.0014 20.0013 20.0012 20.0013 20.0014 20.0014 20.0015 20.0015 20.0015 20.0014 20.0013 20.0011 20.0008 20.0004 19.9999 19.9994 19.9989 19.9986 19.9988 19.9998 20.0022 20.0065 20.013 20.0214 20.0299 20.0346 20.0283 19.9994 19.932 19.8082 19.613 19.3463 19.0397 
20.9823 20.5555 20.2568 20.0742 19.9796 19.9427 19.9383 19.949 19.964 19.9779 19.9884 19.9954 19.9995 20.0016 20.0024 20.0026 20.0025 20.0023 20.0022 20.0022 20.0021 20.0021 20.0021 20.0021 20.002 20.0019 20.0017 20.0014 20.0011 20.0006 20.0001 19.9995 19.9989 19.9982 19.9977 19.9976 19.9983 20.0005 20.0047 20.0114 20.0207 20.0313 20.0398 20.0393 20.0183 19.9599 19.8432 19.6476 19.3634 19.0079 
20.9995 20.6034 20.3081 20.1165 20.0095 19.9611 19.9482 19.9534 19.9653 19.9778 19.9881 19.9953 19.9998 20.0022 20.0034 20.0038 20.0038 20.0036 20.0034 20.0033 20.0031 20.003 20.0028 20.0025 20.0022 20.0019 20.0015 20.001 20.0005 19.9999 19.9993 19.9986 19.9977 19.9969 19.9963 19.996 19.9965 19.9984 20.0024 20.0093 20.0194 20.0319 20.044 20.0494 20.0368 19.9889 19.8823 19.6911 19.3963 19.0005 
20.9921 20.6366 20.3523 20.1566 20.0398 19.9814 19.9603 19.9599 19.9685 19.9793 19.9889 19.9961 20.0009 20.0036 20.0049 20.0054 20.0054 20.0051 20.0048 20.0044 20.0039 20.0035 20.003 20.0024 20.0018 20.0012 20.0005 19.9998 19.9991 19.9984 19.9976 19.9967 19.9959 19.995 19.9942 19.9938 19.9942 19.9959 19.9999 20.0069 20.0176 20.0318 20.0474 20.0587 20.0549 20.0186 19.9246 19.7424 19.4441 19.0177 
20.9603 20.6545 20.3885 20.1939 20.0705 20.0036 19.9749 19.9689 19.9739 19.9827 19.9914 19.9983 20.003 20.0057 20.007 20.0074 20.0071 20.0065 20.0058 20.0049 20.004 20.0031 20.0021 20.0012 20.0002 19.9992 19.9982 19.9973 19.9964 19.9955 19.9947 19.9939 19.9931 19.9924 19.9917 19.9914 19.9918 19.9936 19.9975 20.0047 20.016 20.0318 20.0505 20.0674 20.0726 20.0487 19.9695 19.8007 19.5059 19.0591 
20.9048 20.6568 20.4162 20.2278 20.1012 20.0276 19.9923 19.9808 19.982 19.9884 19.9956 20.0017 20.0059 20.0083 20.0092 20.009 20.0082 20.007 20.0056 20.0041 20.0025 20.0009 19.9994 19.9978 19.9964 19.9951 19.9939 19.9928 19.9919 19.9911 19.9905 19.99 19.9897 19.9893 19.9892 19.9893 19.9901 19.9921 19.9963 20.0037 20.0156 20.0327 20.0542 20.0764 20.0902 20.0792 20.0163 19.8646 19.5804 19.1237 
20.8271 20.6437 20.4349 20.258 20.1317 20.0535 20.0123 19.9955 19.9925 19.996 20.0012 20.0059 20.0089 20.0103 20.0103 20.0092 20.0074 20.0052 20.0028 20.0004 19.9979 19.9956 19.9934 19.9914 19.9897 19.9882 19.987 19.9862 19.9856 19.9854 19.9855 19.9858 19.9863 19.9869 19.9877 19.9887 19.9903 19.993 19.9976 20.0054 20.0178 20.0358 20.0596 20.0864 20.1084 20.11 20.0646 19.9332 19.6658 19.2098 
20.729 20.6154 20.4444 20.2837 20.1611 20.0804 20.0342 20.0122 20.0047 20.0045 20.0069 20.0092 20.0103 20.01 20.0083 20.0057 20.0025 19.999 19.9954 19.9919 19.9886 19.9856 19.9831 19.981 19.9794 19.9783 19.9777 19.9777 19.9783 19.9793 19.9808 19.9827 19.9848 19.987 19.9894 19.9919 19.9947 19.9983 20.0036 20.0117 20.0244 20.043 20.0682 20.0985 20.1274 20.141 20.1134 20.0047 19.76 19.3155 
20.6129 20.5724 20.4437 20.3036 20.1879 20.1065 20.0561 20.0288 20.0162 20.0113 20.0097 20.0087 20.0069 20.004 20 19.9954 19.9904 19.9855 19.9807 19.9764 19.9727 19.9697 19.9675 19.9662 19.9656 19.966 19.9672 19.9692 19.972 19.9754 19.9793 19.9837 19.9883 19.9929 19.9975 20.0019 20.0063 20.011 20.0169 20.0251 20.0373 20.0555 20.0809 20.1131 20.1473 20.1713 20.1612 20.077 19.8605 19.4379 
20.4818 20.5148 20.4312 20.3148 20.2084 20.1277 20.0736 20.0407 20.022 20.0115 20.0047 19.9992 19.9936 19.9875 19.9809 19.9741 19.9676 19.9616 19.9565 19.9523 19.9494 19.9477 19.9474 19.9484 19.9506 19.9541 19.9588 19.9645 19.971 19.9782 19.9859 19.9939 20.0018 20.0095 20.0166 20.023 20.0288 20.0342 20.04 20.0473 20.0579 20.0739 20.0975 20.1291 20.1659 20.1982 20.2044 20.1461 19.9634 19.5742 
20.3387 20.442 20.4034 20.3118 20.2159 20.1366 20.0789 20.0399 20.0143 19.9971 19.9843 19.9736 19.9638 19.9544 19.9456 19.9376 19.9307 19.9253 19.9216 19.9198 19.92 19.9222 19.9263 19.9323 19.9399 19.949 19.9595 19.9709 19.983 19.9956 20.0081 20.0204 20.0321 20.0427 20.0519 20.0596 20.0656 20.0702 20.0741 20.0783 20.0848 20.096 20.1145 20.1422 20.1781 20.2154 20.2363 20.2054 20.0632 19.721 
20.1874 20.3518 20.3536 20.2851 20.1993 20.1214 20.0599 20.0144 19.9815 19.9572 19.9384 19.923 19.9099 19.8988 19.8898 19.883 19.8788 19.8774 19.8789 19.8833 19.8906 19.9006 19.9131 19.9277 19.9441 19.9619 19.9807 20 20.0192 20.038 20.0558 20.0721 20.0865 20.0985 20.1079 20.1142 20.1175 20.118 20.1164 20.1138 20.1122 20.1143 20.1234 20.1424 20.1728 20.2111 20.2445 20.2432 20.1509 19.8747 
20.0314 20.2391 20.2708 20.2198 20.1417 20.0645 19.9993 19.948 19.9088 19.8791 19.8563 19.839 19.8262 19.8176 19.8132 19.813 19.8172 19.8257 19.8384 19.8551 19.8753 19.8986 19.9244 19.9521 19.9809 20.0103 20.0394 20.0676 20.0941 20.1183 20.1395 20.1572 20.1709 20.1802 20.1848 20.1845 20.1795 20.17 20.157 20.1416 20.1261 20.1135 20.1074 20.1121 20.1312 20.1655 20.2086 20.2399 20.2117 20.0314 
19.8747 20.0946 20.137 20.094 20.0199 19.9433 19.8763 19.8224 19.7813 19.7513 19.7307 19.7185 19.7137 19.716 19.725 19.7406 19.7624 19.7899 19.8225 19.8595 19.8999 19.9427 19.987 20.0316 20.0755 20.1175 20.1566 20.1919 20.2224 20.2475 20.2664 20.2788 20.2841 20.2823 20.2733 20.2574 20.2348 20.2065 20.1735 20.1374 20.1008 20.0666 20.0393 20.0237 20.0255 20.0498 20.0983 20.1644 20.2199 20.1874 
19.721 19.9014 19.9262 19.8787 19.8062 19.7333 19.671 19.6231 19.5903 19.5715 19.5656 19.5716 19.5886 19.6158 19.6524 19.6973 19.7496 19.8079 19.871 19.9371 20.0048 20.0724 20.1383 20.2007 20.2582 20.3093 20.3529 20.3877 20.413 20.4282 20.4327 20.4266 20.4099 20.383 20.3465 20.3012 20.2484 20.1895 20.1261 20.0605 19.9954 19.9342 19.881 19.8413 19.8215 19.8297 19.8759 19.9717 20.1273 20.3387 
19.5742 19.6278 19.6026 19.5419 19.4749 19.4168 19.3745 19.3506 19.3456 19.3588 19.3889 19.4348 19.4948 19.5673 19.6504 19.742 19.8399 19.9417 20.0449 20.147 20.2455 20.3379 20.422 20.4958 20.5573 20.6051 20.638 20.6552 20.6563 20.6412 20.6103 20.5644 20.5045 20.4321 20.349 20.2573 20.1591 20.0569 19.9535 19.8517 19.7546 19.6656 19.5884 19.5274 19.488 19.4778 19.5089 19.6068 19.8333 20.4818 
19.4379 19.2098 19.1237 19.0591 19.0177 19.0005 19.0079 19.0397 19.0952 19.1729 19.271 19.3871 19.5182 19.6613 19.8126 19.9686 20.1253 20.279 20.4258 20.5621 20.6845 20.7902 20.8763 20.9409 20.9823 20.9995 20.9921 20.9603 20.9048 20.8271 20.729 20.6129 20.4818 20.3387 20.1874 20.0314 19.8747 19.721 19.5742 19.4379 19.3155 19.2098 19.1237 19.0591 19.0177 19.0005 19.0079 19.0397 19.0952 20.6129 
