# vtk DataFile Version 3.0
Temperature distribution on a 2D grid
ASCII

DATASET STRUCTURED_POINTS
DIMENSIONS 50 50 1
ORIGIN 0.0 0.0 0.0
SPACING 0.01 0.01 1.0

POINT_DATA 2500
SCALARS temperature double
LOOKUP_TABLE default
19.2929 20.5878 20.454 20.309 20.1564 20 19.8436 19.691 19.546 19.4122 19.2929 19.191 19.109 19.0489 19.0123 19 19.0123 19.0489 19.109 19.191 19.2929 19.4122 19.546 19.691 19.8436 20 20.1564 20.309 20.454 20.5878 20.7071 20.809 20.891 20.9511 20.9877 21 20.9877 20.9511 20.891 20.809 20.7071 20.5878 20.454 20.309 20.1564 20 19.8436 19.691 19.546 19.2929 
19.191 19.8293 19.9576 19.9429 19.8726 19.7822 19.6881 19.5991 19.5199 19.4536 19.402 19.3663 19.347 19.3445 19.3584 19.3884 19.4335 19.4926 19.5643 19.6466 19.7377 19.8352 19.9368 20.0399 20.142 20.2407 20.3334 20.418 20.4923 20.5544 20.603 20.6367 20.6547 20.6566 20.6425 20.6125 20.5677 20.509 20.4382 20.3569 20.2672 20.171 20.0697 19.9644 19.8545 19.7385 19.6137 19.4781 19.335 19.191 
19.109 19.5453 19.7348 19.7925 19.7835 19.7449 19.6972 19.6519 19.615 19.5892 19.5758 19.5749 19.5862 19.6087 19.6416 19.6838 19.7339 19.7907 19.8527 19.9183 19.9859 20.0539 20.1205 20.1841 20.2432 20.2964 20.3422 20.3797 20.4079 20.426 20.4337 20.4307 20.4172 20.3934 20.3601 20.318 20.2683 20.2125 20.152 20.0886 20.0237 19.9585 19.893 19.8258 19.7529 19.6678 19.562 19.428 19.2679 19.109 
19.0489 19.429 19.6487 19.7545 19.7906 19.79 19.7742 19.7561 19.7428 19.7377 19.7418 19.755 19.7764 19.8049 19.8391 19.878 19.9201 19.9644 20.0095 20.0545 20.098 20.1391 20.1768 20.2102 20.2384 20.2607 20.2766 20.2858 20.288 20.2832 20.2714 20.253 20.2284 20.1982 20.1633 20.1245 20.0831 20.0402 19.9972 19.9555 19.9162 19.8794 19.8443 19.8075 19.7623 19.6982 19.6015 19.4587 19.2665 19.0489 
19.0123 19.3754 19.6185 19.7598 19.8298 19.8567 19.862 19.8597 19.858 19.861 19.8702 19.8856 19.9062 19.931 19.9588 19.9883 20.0185 20.0484 20.0771 20.104 20.1282 20.1493 20.1667 20.18 20.1888 20.1931 20.1926 20.1875 20.1778 20.1638 20.1458 20.1242 20.0997 20.0728 20.0442 20.0148 19.9855 19.9573 19.9313 19.9087 19.89 19.8753 19.8627 19.8478 19.822 19.7718 19.679 19.5246 19.2976 19.0123 
19 19.3479 19.6055 19.7722 19.8672 19.9141 19.9336 19.9402 19.9432 19.9476 19.9557 19.9677 19.9831 20.0009 20.0201 20.0396 20.0585 20.0763 20.0922 20.1058 20.1168 20.1249 20.1299 20.1317 20.1303 20.1257 20.1181 20.1076 20.0946 20.0793 20.0621 20.0434 20.0237 20.0036 19.9834 19.964 19.9459 19.9301 19.9174 19.9088 19.9048 19.9051 19.9078 19.9078 19.8955 19.8554 19.7661 19.6029 19.3468 19 
19.0123 19.3343 19.5951 19.7772 19.8897 19.9512 19.9804 19.9923 19.9969 20.0001 20.0048 20.0119 20.0212 20.032 20.0434 20.0547 20.0651 20.0742 20.0815 20.0868 20.0899 20.0907 20.0894 20.0858 20.0801 20.0725 20.0632 20.0523 20.0403 20.0274 20.0138 20 19.9863 19.973 19.9604 19.9491 19.9396 19.9326 19.9288 19.9292 19.9342 19.9439 19.9562 19.9662 19.9639 19.9329 19.8492 19.6833 19.4079 19.0123 
19.0489 19.3319 19.5839 19.7723 19.8958 19.9676 20.0042 20.0198 20.0251 20.0266 20.0279 20.0305 20.0346 20.0398 20.0455 20.051 20.0558 20.0594 20.0617 20.0625 20.0617 20.0593 20.0555 20.0503 20.0438 20.0363 20.028 20.0191 20.0098 20.0003 19.9909 19.9818 19.9733 19.9654 19.9585 19.9529 19.949 19.9473 19.9486 19.9539 19.9638 19.9786 19.9967 20.0136 20.0197 19.9982 19.9233 19.7619 19.4785 19.0489 
19.109 19.3412 19.5737 19.7601 19.8892 19.9681 20.0103 20.0292 20.0353 20.0358 20.0347 20.034 20.0345 20.0359 20.0379 20.0398 20.0414 20.0422 20.0421 20.0409 20.0387 20.0355 20.0314 20.0265 20.021 20.015 20.0086 20.0022 19.9958 19.9896 19.9837 19.9783 19.9735 19.9694 19.9662 19.964 19.9631 19.9641 19.9678 19.9751 19.9871 20.0042 20.0257 20.0478 20.0615 20.0504 19.9881 19.8379 19.5574 19.109 
19.191 19.3631 19.5674 19.7448 19.8748 19.9581 20.0049 20.027 20.0346 20.035 20.0327 20.0302 20.0285 20.0277 20.0275 20.0277 20.0277 20.0273 20.0264 20.0248 20.0226 20.0197 20.0164 20.0126 20.0085 20.0043 20 19.9958 19.9917 19.988 19.9847 19.9818 19.9795 19.9776 19.9764 19.9759 19.9763 19.9783 19.9825 19.9901 20.0023 20.0202 20.0436 20.0697 20.0908 20.0912 20.0444 19.9116 19.6439 19.191 
19.2929 19.3984 19.5676 19.7304 19.8572 19.9427 19.9932 20.0185 20.0281 20.0293 20.0269 20.0237 20.021 20.0191 20.018 20.0174 20.0169 20.0163 20.0154 20.0142 20.0125 20.0105 20.0082 20.0057 20.003 20.0003 19.9976 19.9951 19.9927 19.9907 19.989 19.9876 19.9866 19.9859 19.9856 19.9857 19.9864 19.9882 19.992 19.9989 20.0104 20.028 20.0524 20.0819 20.1101 20.1227 20.0938 19.9833 19.737 19.2929 
19.4122 19.4474 19.5762 19.7196 19.8399 19.9256 19.9788 20.0072 20.0193 20.022 20.0203 20.0172 20.0143 20.0121 20.0107 20.0099 20.0094 20.0091 20.0086 20.0079 20.007 20.0058 20.0045 20.003 20.0014 19.9998 19.9983 19.9968 19.9956 19.9946 19.9937 19.9932 19.9928 19.9926 19.9925 19.9926 19.993 19.9942 19.997 20.0027 20.013 20.0298 20.0547 20.087 20.1219 20.1469 20.1374 20.0528 19.8352 19.4122 
19.546 19.5095 19.5942 19.7145 19.8252 19.909 19.964 19.9953 20.01 20.0146 20.0141 20.0117 20.009 20.007 20.0057 20.005 20.0048 20.0047 20.0047 20.0046 20.0043 20.0038 20.0032 20.0024 20.0016 20.0007 19.9999 19.9992 19.9985 19.998 19.9976 19.9974 19.9973 19.9971 19.997 19.9968 19.9967 19.9972 19.9989 20.0032 20.012 20.0277 20.0524 20.0869 20.128 20.1651 20.1756 20.1197 19.9367 19.546 
19.691 19.5834 19.6219 19.716 19.8145 19.8946 19.9502 19.9838 20.0011 20.0079 20.0089 20.0074 20.0053 20.0036 20.0025 20.002 20.0021 20.0023 20.0026 20.0029 20.0031 20.0031 20.003 20.0027 20.0024 20.0019 20.0015 20.0011 20.0007 20.0005 20.0003 20.0001 20 19.9998 19.9995 19.999 19.9984 19.9981 19.9987 20.0016 20.0089 20.0232 20.0473 20.0833 20.1296 20.1781 20.2087 20.183 20.0395 19.691 
19.8436 19.6675 19.6589 19.7245 19.8085 19.8831 19.9381 19.9734 19.993 20.0019 20.0045 20.0041 20.0027 20.0014 20.0006 20.0003 20.0006 20.001 20.0016 20.0022 20.0026 20.0029 20.0031 20.0031 20.003 20.0028 20.0026 20.0023 20.0021 20.0019 20.0017 20.0016 20.0014 20.0011 20.0007 19.9999 19.9988 19.9978 19.9975 19.9991 20.0047 20.0174 20.0405 20.0771 20.1276 20.1864 20.2363 20.2417 20.1412 19.8436 
20 19.7599 19.7044 19.74 19.8075 19.8748 19.928 19.9642 19.9857 19.9966 20.0008 20.0016 20.0009 20 19.9995 19.9994 19.9997 20.0003 20.001 20.0017 20.0023 20.0028 20.0031 20.0032 20.0033 20.0032 20.003 20.0028 20.0026 20.0024 20.0023 20.0021 20.0019 20.0016 20.001 20 19.9986 19.997 19.9958 19.9961 20.0001 20.0109 20.0325 20.069 20.1225 20.1902 20.2582 20.2944 20.2395 20 
20.1564 19.8583 19.7573 19.7621 19.8115 19.8699 19.9201 19.9564 19.9793 19.9919 19.9976 19.9995 19.9996 19.9991 19.9988 19.9988 19.9992 19.9998 20.0006 20.0013 20.002 20.0025 20.0029 20.0031 20.0031 20.0031 20.003 20.0028 20.0026 20.0024 20.0022 20.0021 20.0018 20.0015 20.0008 19.9997 19.9981 19.9961 19.9941 19.9932 19.9956 20.0043 20.0239 20.0593 20.1145 20.1894 20.2739 20.34 20.3319 20.1564 
20.309 19.9601 19.8162 19.7902 19.8203 19.8684 19.9143 19.9498 19.9736 19.9876 19.9947 19.9977 19.9984 19.9984 19.9983 19.9984 19.9988 19.9994 20.0002 20.0009 20.0015 20.0021 20.0024 20.0027 20.0027 20.0027 20.0026 20.0024 20.0022 20.002 20.0019 20.0017 20.0015 20.0011 20.0004 19.9993 19.9975 19.9952 19.9925 19.9905 19.9912 19.9977 20.0148 20.0483 20.1039 20.1841 20.2829 20.3773 20.4162 20.309 
20.454 20.063 19.8797 19.8235 19.8336 19.8702 19.9107 19.9446 19.9687 19.9838 19.9921 19.996 19.9974 19.9978 19.9979 19.9981 19.9985 19.999 19.9997 20.0004 20.001 20.0015 20.0019 20.0021 20.0022 20.0021 20.002 20.0019 20.0017 20.0015 20.0013 20.0012 20.001 20.0006 20 19.9989 19.997 19.9944 19.9912 19.9882 19.9871 19.9913 20.0055 20.0363 20.0909 20.1744 20.2851 20.4053 20.4903 20.454 
20.5878 20.1644 19.9462 19.8611 19.851 19.8753 19.9094 19.9407 19.9645 19.9803 19.9896 19.9944 19.9965 19.9973 19.9975 19.9978 19.9981 19.9986 19.9992 19.9999 20.0004 20.0009 20.0012 20.0015 20.0015 20.0015 20.0014 20.0013 20.0011 20.0009 20.0008 20.0006 20.0005 20.0002 19.9996 19.9985 19.9966 19.9938 19.9901 19.9861 19.9834 19.9851 19.996 20.0234 20.0756 20.1605 20.2802 20.4234 20.5523 20.5878 
20.7071 20.2616 20.014 19.9022 19.872 19.8834 19.9102 19.9383 19.9612 19.9773 19.9873 19.9929 19.9956 19.9967 19.9972 19.9975 19.9978 19.9983 19.9988 19.9994 19.9999 20.0003 20.0007 20.0009 20.001 20.0009 20.0009 20.0007 20.0005 20.0004 20.0002 20.0001 20 19.9997 19.9992 19.9981 19.9962 19.9933 19.9892 19.9844 19.9801 19.9793 19.9867 20.0099 20.0585 20.1426 20.2685 20.4311 20.6007 20.7071 
20.809 20.3525 20.0814 19.9456 19.8962 19.8943 19.9132 19.9374 19.9588 19.9748 19.9853 19.9915 19.9948 19.9963 19.9969 19.9973 19.9976 19.998 19.9985 19.999 19.9994 19.9998 20.0002 20.0004 20.0004 20.0004 20.0004 20.0002 20.0001 19.9999 19.9998 19.9997 19.9995 19.9993 19.9988 19.9978 19.996 19.993 19.9886 19.983 19.9772 19.9739 19.9777 19.9962 20.0399 20.1211 20.2502 20.4282 20.6344 20.809 
20.891 20.4346 20.1468 19.9903 19.9229 19.9077 19.9183 19.9379 19.9574 19.9729 19.9836 19.9903 19.994 19.9959 19.9967 19.9972 19.9975 19.9978 19.9982 19.9987 19.9991 19.9995 19.9997 19.9999 20 20 20 19.9999 19.9997 19.9995 19.9994 19.9993 19.9991 19.9989 19.9985 19.9975 19.9958 19.9928 19.9882 19.9819 19.9749 19.9691 19.9691 19.9825 20.0203 20.0967 20.2256 20.4147 20.6523 20.891 
20.9511 20.506 20.2086 20.0353 19.9514 19.9234 19.9254 19.9399 19.9569 19.9715 19.9823 19.9893 19.9934 19.9956 19.9966 19.9971 19.9975 19.9978 19.9981 19.9985 19.9989 19.9992 19.9995 19.9997 19.9998 19.9998 19.9997 19.9996 19.9994 19.9992 19.9991 19.9989 19.9988 19.9986 19.9982 19.9973 19.9956 19.9927 19.988 19.9813 19.973 19.965 19.9612 19.9691 20.0001 20.0697 20.1955 20.3909 20.6543 20.9511 
20.9877 20.565 20.2651 20.0793 19.981 19.9409 19.9342 19.9433 19.9574 19.9708 19.9813 19.9885 19.9929 19.9953 19.9966 19.9972 19.9975 19.9978 19.9981 19.9984 19.9987 19.999 19.9993 19.9995 19.9996 19.9996 19.9996 19.9994 19.9993 19.9991 19.9989 19.9987 19.9985 19.9983 19.9979 19.9971 19.9956 19.9928 19.988 19.981 19.9718 19.9617 19.9542 19.9564 19.9798 20.041 20.1604 20.3575 20.64 20.9877 
21 20.61 20.3152 20.1213 20.0111 19.9598 19.9445 19.948 19.9589 19.9708 19.9807 19.9879 19.9925 19.9952 19.9966 19.9973 19.9977 19.9979 19.9982 19.9984 19.9987 19.999 19.9992 19.9994 19.9996 19.9996 19.9995 19.9994 19.9992 19.999 19.9988 19.9985 19.9983 19.9981 19.9977 19.997 19.9956 19.993 19.9883 19.9811 19.9711 19.9592 19.9483 19.9448 19.96 20.0113 20.1214 20.3153 20.61 21 
20.9877 20.64 20.3574 20.1603 20.0408 19.9796 19.9561 19.9539 19.9613 19.9713 19.9805 19.9876 19.9923 19.9951 19.9967 19.9975 19.9979 19.9981 19.9983 19.9986 19.9988 19.9991 19.9993 19.9995 19.9996 19.9997 19.9996 19.9995 19.9993 19.999 19.9988 19.9985 19.9982 19.998 19.9976 19.997 19.9958 19.9933 19.9889 19.9817 19.9712 19.9577 19.9435 19.9344 19.9411 19.9812 20.0794 20.2652 20.565 20.9877 
20.9511 20.6542 20.3908 20.1953 20.0695 19.9998 19.9687 19.9608 19.9645 19.9725 19.9807 19.9874 19.9922 19.9951 19.9968 19.9977 19.9981 19.9984 19.9986 19.9988 19.999 19.9993 19.9995 19.9997 19.9998 19.9999 19.9998 19.9997 19.9995 19.9992 19.9989 19.9985 19.9982 19.9979 19.9976 19.9971 19.996 19.9938 19.9897 19.9826 19.9719 19.9572 19.9401 19.9256 19.9236 19.9515 20.0354 20.2086 20.5061 20.9511 
20.891 20.6523 20.4145 20.2254 20.0963 20.0199 19.982 19.9686 19.9686 19.9743 19.9813 19.9875 19.9922 19.9952 19.997 19.9979 19.9984 19.9987 19.9989 19.9991 19.9993 19.9996 19.9998 20 20.0001 20.0002 20.0002 20.0001 19.9998 19.9995 19.9991 19.9987 19.9983 19.998 19.9977 19.9972 19.9963 19.9944 19.9907 19.984 19.9732 19.9576 19.9381 19.9185 19.9079 19.923 19.9904 20.1469 20.4346 20.891 
20.809 20.6343 20.428 20.2499 20.1208 20.0395 19.9957 19.9771 19.9733 19.9766 19.9823 19.9879 19.9923 19.9953 19.9972 19.9982 19.9988 19.9991 19.9993 19.9995 19.9997 19.9999 20.0002 20.0004 20.0006 20.0007 20.0006 20.0005 20.0003 19.9999 19.9995 19.999 19.9986 19.9982 19.9978 19.9974 19.9967 19.9952 19.9919 19.9857 19.9751 19.9591 19.9376 19.9134 19.8944 19.8963 19.9457 20.0815 20.3525 20.809 
20.7071 20.6006 20.4309 20.2682 20.1422 20.058 20.0094 19.9861 19.9786 19.9794 19.9836 19.9884 19.9925 19.9955 19.9974 19.9985 19.9991 19.9995 19.9997 19.9999 20.0002 20.0004 20.0007 20.0009 20.0011 20.0012 20.0012 20.0011 20.0008 20.0004 19.9999 19.9994 19.9989 19.9984 19.9981 19.9977 19.9972 19.996 19.9933 19.9877 19.9776 19.9615 19.9386 19.9104 19.8835 19.8721 19.9023 20.0141 20.2617 20.7071 
20.5878 20.5522 20.4232 20.2799 20.1601 20.0751 20.0228 19.9954 19.9844 19.9826 19.9853 19.9893 19.993 19.9958 19.9977 19.9989 19.9995 19.9999 20.0002 20.0004 20.0007 20.0009 20.0012 20.0015 20.0017 20.0018 20.0018 20.0016 20.0013 20.0009 20.0004 19.9998 19.9992 19.9987 19.9983 19.9981 19.9978 19.997 19.9948 19.99 19.9807 19.9649 19.941 19.9096 19.8755 19.8511 19.8612 19.9463 20.1644 20.5878 
20.454 20.4902 20.4051 20.2848 20.1741 20.0904 20.0357 20.0048 19.9906 19.9864 19.9874 19.9904 19.9936 19.9962 19.9981 19.9993 20 20.0004 20.0006 20.0009 20.0011 20.0014 20.0017 20.002 20.0022 20.0023 20.0023 20.0022 20.0019 20.0014 20.0009 20.0002 19.9996 19.999 19.9986 19.9984 19.9983 19.9979 19.9965 19.9925 19.9842 19.9691 19.9449 19.911 19.8705 19.8338 19.8236 19.8799 20.0631 20.454 
20.309 20.4161 20.3771 20.2827 20.1839 20.1036 20.0479 20.0143 19.9971 19.9905 19.9898 19.9917 19.9943 19.9967 19.9984 19.9996 20.0003 20.0007 20.001 20.0012 20.0015 20.0017 20.002 20.0023 20.0025 20.0027 20.0027 20.0026 20.0023 20.0018 20.0013 20.0006 19.9999 19.9993 19.999 19.9989 19.999 19.999 19.9983 19.9953 19.9882 19.9742 19.9503 19.9148 19.8688 19.8207 19.7905 19.8164 19.9602 20.309 
20.1564 20.3319 20.3399 20.2738 20.1893 20.1144 20.059 20.0235 20.0039 19.995 19.9926 19.9933 19.9952 19.9972 19.9987 19.9998 20.0004 20.0008 20.0011 20.0013 20.0015 20.0018 20.002 20.0023 20.0026 20.0027 20.0028 20.0027 20.0025 20.0021 20.0016 20.0009 20.0003 19.9998 19.9995 19.9995 19.9999 20.0004 20.0004 19.9985 19.9928 19.9802 19.9572 19.9209 19.8706 19.8121 19.7626 19.7576 19.8584 20.1564 
20 20.2395 20.2945 20.2584 20.1903 20.1226 20.069 20.0324 20.0107 19.9997 19.9955 19.995 19.9961 19.9975 19.9987 19.9996 20.0001 20.0004 20.0006 20.0008 20.0009 20.0012 20.0015 20.0018 20.0021 20.0023 20.0025 20.0026 20.0025 20.0022 20.0018 20.0013 20.0008 20.0004 20.0002 20.0005 20.0012 20.0022 20.0029 20.0022 19.998 19.9871 19.9656 19.9293 19.8759 19.8085 19.7408 19.7049 19.7602 20 
19.8436 20.1413 20.2419 20.2366 20.1868 20.1279 20.0773 20.0405 20.0172 20.0043 19.9983 19.9964 19.9965 19.9972 19.998 19.9986 19.9989 19.9991 19.9992 19.9993 19.9995 19.9998 20.0001 20.0006 20.001 20.0015 20.0019 20.0022 20.0024 20.0024 20.0023 20.0021 20.0018 20.0016 20.0017 20.0022 20.0032 20.0047 20.0062 20.0067 20.0041 19.9952 19.9755 19.94 19.8847 19.8099 19.7255 19.6596 19.6679 19.8436 
19.691 20.0396 20.1833 20.209 20.1785 20.1299 20.0834 20.0472 20.0227 20.0081 20.0004 19.997 19.9959 19.9959 19.9961 19.9963 19.9964 19.9964 19.9965 19.9966 19.9969 19.9973 19.9979 19.9987 19.9995 20.0003 20.0011 20.0019 20.0026 20.0031 20.0035 20.0037 20.0038 20.004 20.0044 20.0052 20.0065 20.0085 20.0107 20.0123 20.0112 20.0043 19.9867 19.9528 19.8968 19.8162 19.7172 19.6227 19.5838 19.691 
19.546 19.9367 20.1197 20.1756 20.165 20.1277 20.0863 20.0515 20.0263 20.01 20.0006 19.9957 19.9934 19.9925 19.9921 19.9919 19.9918 19.9919 19.992 19.9924 19.993 19.9939 19.995 19.9963 19.9978 19.9994 20.0009 20.0025 20.0039 20.0051 20.0062 20.007 20.0077 20.0083 20.0091 20.0101 20.0117 20.0139 20.0166 20.019 20.0192 20.0142 19.999 19.9671 19.9114 19.8269 19.7156 19.5949 19.5098 19.546 
19.4122 19.8347 20.052 20.1362 20.1453 20.1199 20.0845 20.0517 20.0262 20.0087 19.9977 19.9913 19.9878 19.9861 19.9852 19.9849 19.9849 19.9852 19.9859 19.9869 19.9883 19.9901 19.9922 19.9946 19.9972 19.9999 20.0026 20.0052 20.0077 20.0099 20.0118 20.0133 20.0146 20.0156 20.0165 20.0176 20.0191 20.0213 20.024 20.0267 20.0278 20.0242 20.0112 19.9817 19.9275 19.8409 19.7199 19.5762 19.4473 19.4122 
19.2929 19.7356 19.9806 20.09 20.118 20.1046 20.0757 20.0454 20.0203 20.0019 19.9897 19.9822 19.978 19.9758 19.975 19.975 19.9757 19.9769 19.9788 19.9811 19.9841 19.9874 19.9912 19.9953 19.9996 20.0039 20.0082 20.0122 20.0159 20.0191 20.0219 20.024 20.0255 20.0266 20.0273 20.0279 20.0287 20.0301 20.032 20.0342 20.0353 20.0326 20.0214 19.9944 19.9425 19.8558 19.7284 19.5658 19.3974 19.2929 
19.191 19.6408 19.9055 20.0359 20.0808 20.079 20.0569 20.03 20.006 19.9876 19.975 19.9673 19.9631 19.9615 19.9616 19.963 19.9655 19.9688 19.9729 19.9777 19.9831 19.989 19.9953 20.0018 20.0083 20.0146 20.0206 20.0261 20.0309 20.035 20.038 20.0402 20.0413 20.0415 20.041 20.0401 20.0391 20.0385 20.0385 20.0389 20.039 20.0361 20.026 20.0015 19.9528 19.8683 19.7383 19.562 19.3601 19.191 
19.109 19.5513 19.8262 19.9719 20.031 20.04 20.0251 20.0025 19.9809 19.9641 19.9527 19.9464 19.944 19.9446 19.9474 19.9519 19.9578 19.9648 19.9727 19.9813 19.9904 19.9998 20.0094 20.0187 20.0277 20.036 20.0435 20.0499 20.0551 20.0588 20.0611 20.0618 20.061 20.0588 20.0554 20.0512 20.0467 20.0424 20.0388 20.0361 20.0336 20.0295 20.0198 19.9977 19.9532 19.8734 19.7454 19.5623 19.3349 19.109 
19.0489 19.4679 19.7418 19.896 19.9659 19.9847 19.9777 19.9612 19.9445 19.9318 19.9245 19.9223 19.9244 19.9299 19.9381 19.9482 19.9597 19.9724 19.9858 19.9995 20.0134 20.027 20.0399 20.052 20.0629 20.0722 20.0798 20.0855 20.089 20.0903 20.0893 20.0861 20.0808 20.0736 20.0648 20.0549 20.0446 20.0346 20.0256 20.0179 20.0116 20.0052 19.9954 19.9761 19.9373 19.8656 19.7452 19.5634 19.3209 19.0489 
19.0123 19.3913 19.6522 19.8073 19.8844 19.9127 19.9153 19.908 19.8999 19.8956 19.8966 19.9028 19.9134 19.9277 19.9445 19.9631 19.9828 20.0031 20.0233 20.043 20.0617 20.0789 20.0943 20.1074 20.1179 20.1255 20.1301 20.1315 20.1296 20.1246 20.1164 20.1053 20.0916 20.0757 20.0582 20.0398 20.0212 20.0034 19.9874 19.9738 19.9631 19.9543 19.9449 19.9296 19.8991 19.8398 19.7339 19.5631 19.3176 19.0123 
19 19.3233 19.5593 19.7083 19.7902 19.8289 19.8447 19.8516 19.8581 19.8683 19.8835 19.9037 19.9279 19.9551 19.9842 20.014 20.0437 20.0724 20.0993 20.1239 20.1454 20.1635 20.1775 20.1873 20.1924 20.1929 20.1887 20.1798 20.1664 20.149 20.1278 20.1035 20.0766 20.0479 20.0182 19.9885 19.9598 19.9333 19.9102 19.8914 19.8775 19.8684 19.862 19.8541 19.8363 19.7954 19.7122 19.5634 19.3274 19 
19.0123 19.2687 19.4709 19.6094 19.696 19.7489 19.7842 19.813 19.8421 19.8746 19.9114 19.9517 19.9946 20.0385 20.082 20.1239 20.1628 20.1979 20.2281 20.2527 20.2711 20.2829 20.2878 20.2857 20.2765 20.2606 20.2382 20.21 20.1767 20.1389 20.0977 20.0541 20.0092 19.964 19.9199 19.8782 19.84 19.8067 19.7797 19.76 19.7483 19.7447 19.7478 19.7541 19.7564 19.7424 19.6924 19.5777 19.362 19.0123 
19.0489 19.2394 19.4062 19.535 19.6311 19.706 19.7702 19.8309 19.8923 19.9556 20.0206 20.086 20.1502 20.2113 20.2676 20.3175 20.3598 20.3932 20.417 20.4305 20.4335 20.4259 20.4077 20.3796 20.3421 20.2963 20.2431 20.184 20.1203 20.0537 19.9857 19.9181 19.8525 19.7905 19.7338 19.6839 19.6422 19.6101 19.5885 19.5786 19.5807 19.5947 19.6195 19.6519 19.6862 19.7113 19.7082 19.643 19.4574 19.0489 
19.109 19.2641 19.4056 19.5339 19.6503 19.759 19.864 19.9675 20.0696 20.1696 20.2656 20.3556 20.4372 20.5084 20.5673 20.6123 20.6423 20.6565 20.6546 20.6366 20.6029 20.5544 20.4922 20.4179 20.3334 20.2407 20.142 20.0398 19.9367 19.8351 19.7376 19.6465 19.5641 19.4925 19.4334 19.3884 19.3587 19.3452 19.3483 19.3682 19.4046 19.4566 19.5225 19.5995 19.6827 19.7638 19.8274 19.8399 19.7185 19.109 
19.191 19.4122 19.546 19.691 19.8436 20 20.1564 20.309 20.454 20.5878 20.7071 20.809 20.891 20.9511 20.9877 21 20.9877 20.9511 20.891 20.809 20.7071 20.5878 20.454 20.309 20.1564 20 19.8436 19.691 19.546 19.4122 19.2929 19.191 19.109 19.0489 19.0123 19 19.0123 19.0489 19.109 19.191 19.2929 19.4122 19.546 19.691 19.8436 20 20.1564 20.309 20.454 19.191 
