# vtk DataFile Version 3.0
Temperature distribution on a 2D grid
ASCII

DATASET STRUCTURED_POINTS
DIMENSIONS 50 50 1
ORIGIN 0.0 0.0 0.0
SPACING 0.01 0.01 1.0

POINT_DATA 2500
SCALARS temperature double
LOOKUP_TABLE default
20 19.8436 19.691 19.546 19.4122 19.2929 19.191 19.109 19.0489 19.0123 19 19.0123 19.0489 19.109 19.191 19.2929 19.4122 19.546 19.691 19.8436 20 20.1564 20.309 20.454 20.5878 20.7071 20.809 20.891 20.9511 20.9877 21 20.9877 20.9511 20.891 20.809 20.7071 20.5878 20.454 20.309 20.1564 20 19.8436 19.691 19.546 19.4122 19.2929 19.191 19.109 19.0489 19 
19.8436 19.8026 19.7041 19.6009 19.5099 19.4376 19.3861 19.3558 19.3463 19.3565 19.3851 19.4304 19.4908 19.5644 19.649 19.7425 19.8425 19.9464 20.0516 20.1556 20.2557 20.3496 20.4348 20.5093 20.5713 20.6193 20.652 20.6686 20.6688 20.6525 20.6201 20.5725 20.5108 20.4365 20.3515 20.258 20.1583 20.0549 19.9506 19.8482 19.7504 19.6599 19.5787 19.508 19.4471 19.3929 19.3379 19.2696 19.1697 19.0123 
19.691 19.8033 19.7919 19.7392 19.6824 19.6374 19.6103 19.6024 19.6125 19.6386 19.6781 19.7285 19.7877 19.8532 19.9231 19.9952 20.0676 20.1385 20.2061 20.2685 20.3244 20.3723 20.4111 20.4397 20.4575 20.464 20.4591 20.4429 20.4158 20.3784 20.3318 20.2769 20.2153 20.1484 20.078 20.0058 19.9338 19.8639 19.7982 19.7387 19.6875 19.6462 19.6156 19.5951 19.5809 19.5648 19.5314 19.4567 19.3082 19.0489 
19.546 19.7881 19.8668 19.8687 19.8432 19.8163 19.7999 19.7981 19.8109 19.8362 19.8714 19.9139 19.9611 20.0109 20.0614 20.111 20.1581 20.2014 20.2399 20.2725 20.2984 20.3169 20.3277 20.3304 20.3249 20.3115 20.2904 20.2621 20.2274 20.1871 20.1422 20.0938 20.0431 19.9914 19.9401 19.8904 19.8439 19.802 19.7661 19.7379 19.7188 19.7099 19.7115 19.7218 19.7353 19.7405 19.7168 19.6324 19.4453 19.109 
19.4122 19.7487 19.9035 19.9557 19.9591 19.9463 19.9346 19.9318 19.9398 19.9575 19.9827 20.013 20.046 20.0799 20.1129 20.1438 20.1715 20.1952 20.2142 20.2279 20.236 20.2384 20.2349 20.2255 20.2107 20.1906 20.1659 20.1371 20.1049 20.0701 20.0336 19.9963 19.9591 19.923 19.889 19.8579 19.8309 19.809 19.7933 19.785 19.7855 19.7957 19.8156 19.8433 19.8726 19.8904 19.8732 19.7847 19.5758 19.191 
19.2929 19.6906 19.903 19.9972 20.026 20.0255 20.017 20.0115 20.013 20.0218 20.0365 20.0552 20.0758 20.0966 20.1163 20.1338 20.1485 20.1597 20.1671 20.1704 20.1696 20.1646 20.1555 20.1426 20.1262 20.1067 20.0846 20.0604 20.0347 20.0081 19.9814 19.9551 19.93 19.9067 19.8858 19.8681 19.8542 19.845 19.8413 19.8443 19.8553 19.8752 19.9044 19.9412 19.9797 20.0065 19.9974 19.9132 19.6998 19.2929 
19.191 19.6222 19.8746 20.0018 20.0526 20.0637 20.0589 20.0515 20.0476 20.0491 20.0553 20.0647 20.0759 20.0873 20.0979 20.1069 20.1137 20.1178 20.1192 20.1177 20.1134 20.1062 20.0965 20.0843 20.0701 20.0542 20.0369 20.0188 20.0001 19.9815 19.9633 19.9461 19.9302 19.9161 19.9043 19.8952 19.8892 19.8871 19.8897 19.8981 19.9136 19.9375 19.9706 20.0119 20.0563 20.0913 20.093 20.0215 19.8188 19.4122 
19.109 19.5514 19.829 19.9813 20.0509 20.0732 20.0731 20.0657 20.0587 20.0552 20.0554 20.0585 20.0633 20.0687 20.0736 20.0775 20.08 20.0807 20.0795 20.0764 20.0715 20.0648 20.0565 20.0469 20.036 20.0243 20.012 19.9995 19.9869 19.9746 19.963 19.9523 19.9428 19.9349 19.9286 19.9245 19.9229 19.9243 19.9295 19.9397 19.9563 19.981 20.0151 20.0584 20.1072 20.1506 20.1659 20.1137 19.9338 19.546 
19.0489 19.4846 19.7752 19.9457 20.0311 20.0644 20.0703 20.0649 20.0571 20.0509 20.0476 20.0469 20.0478 20.0495 20.0512 20.0524 20.0527 20.052 20.0501 20.047 20.0428 20.0376 20.0314 20.0245 20.0169 20.009 20.0008 19.9926 19.9846 19.977 19.9699 19.9636 19.9583 19.954 19.951 19.9496 19.95 19.9527 19.9586 19.9686 19.9846 20.0084 20.0419 20.0861 20.1386 20.1905 20.2213 20.1932 20.0451 19.691 
19.0123 19.4266 19.72 19.9026 20.0014 20.0453 20.0581 20.0562 20.0494 20.0427 20.0378 20.035 20.0338 20.0335 20.0335 20.0335 20.033 20.0319 20.0301 20.0276 20.0245 20.0208 20.0166 20.012 20.0071 20.002 19.9969 19.9918 19.987 19.9825 19.9784 19.9748 19.9719 19.9698 19.9685 19.9683 19.9695 19.9724 19.9778 19.9869 20.0014 20.0235 20.0558 20.1 20.1555 20.2158 20.2631 20.262 20.1522 19.8436 
19 19.3807 19.668 19.8575 19.9669 20.0208 20.0411 20.0439 20.0396 20.0336 20.0286 20.025 20.0229 20.0217 20.021 20.0204 20.0197 20.0187 20.0173 20.0156 20.0135 20.0111 20.0084 20.0055 20.0025 19.9994 19.9963 19.9934 19.9906 19.988 19.9857 19.9838 19.9823 19.9813 19.9809 19.9812 19.9824 19.9849 19.9895 19.9973 20.01 20.0301 20.0606 20.1042 20.1621 20.23 20.2937 20.321 20.2538 20 
19.0123 19.349 19.6225 19.8137 19.9312 19.9941 20.0219 20.0302 20.0293 20.0251 20.0208 20.0174 20.0151 20.0136 20.0127 20.012 20.0113 20.0105 20.0096 20.0084 20.0071 20.0057 20.004 20.0023 20.0006 19.9988 19.997 19.9954 19.9938 19.9924 19.9912 19.9902 19.9894 19.989 19.9889 19.9893 19.9903 19.9923 19.9959 20.0023 20.0131 20.0309 20.0592 20.1016 20.1608 20.2354 20.3145 20.3703 20.3482 20.1564 
19.0489 19.333 19.5855 19.7737 19.8964 19.967 20.0022 20.0162 20.0192 20.0175 20.0146 20.0118 20.0098 20.0084 20.0075 20.0068 20.0063 20.0057 20.0051 20.0044 20.0036 20.0028 20.0019 20.0009 19.9999 19.9989 19.998 19.997 19.9962 19.9955 19.9948 19.9943 19.994 19.9938 19.9938 19.9941 19.9948 19.9962 19.9989 20.0038 20.0126 20.0281 20.0537 20.0942 20.1537 20.2333 20.3262 20.4097 20.4336 20.309 
19.109 19.3331 19.5585 19.739 19.864 19.9408 19.9827 20.0024 20.0096 20.0107 20.0095 20.0077 20.0062 20.0051 20.0043 20.0038 20.0034 20.003 20.0026 20.0022 20.0018 20.0013 20.0008 20.0003 19.9998 19.9992 19.9987 19.9983 19.9978 19.9974 19.9971 19.9969 19.9967 19.9966 19.9966 19.9968 19.9971 19.998 19.9997 20.0032 20.01 20.0228 20.0455 20.0832 20.1416 20.2246 20.3293 20.4385 20.508 20.454 
19.191 19.3497 19.5422 19.7106 19.835 19.9162 19.964 19.989 20.0004 20.0045 20.0052 20.0046 20.0037 20.003 20.0025 20.0021 20.0018 20.0016 20.0013 20.0011 20.0009 20.0006 20.0003 20.0001 19.9998 19.9995 19.9993 19.999 19.9988 19.9986 19.9985 19.9983 19.9982 19.9982 19.9981 19.9981 19.9982 19.9984 19.9993 20.0014 20.0062 20.0162 20.0354 20.0696 20.1257 20.21 20.3241 20.4563 20.5699 20.5878 
19.2929 19.3823 19.5373 19.6894 19.8101 19.8939 19.9464 19.9763 19.9917 19.9987 20.0014 20.002 20.0019 20.0016 20.0013 20.0011 20.0009 20.0008 20.0006 20.0005 20.0004 20.0003 20.0001 20 19.9999 19.9997 19.9996 19.9995 19.9994 19.9993 19.9992 19.9991 19.9991 19.999 19.9989 19.9987 19.9985 19.9982 19.9982 19.9989 20.0016 20.0086 20.024 20.0539 20.1064 20.1901 20.3107 20.4628 20.6178 20.7071 
19.4122 19.4301 19.5437 19.676 19.79 19.8743 19.9303 19.9643 19.9834 19.9933 19.9979 19.9998 20.0005 20.0007 20.0006 20.0005 20.0004 20.0004 20.0003 20.0002 20.0002 20.0001 20 20 19.9999 19.9999 19.9998 19.9997 19.9997 19.9996 19.9996 19.9995 19.9995 19.9994 19.9992 19.9989 19.9984 19.9976 19.9968 19.9961 19.9967 20.0007 20.0119 20.0368 20.0843 20.1655 20.2897 20.458 20.6504 20.809 
19.546 19.4919 19.5614 19.6705 19.7751 19.8578 19.916 19.9534 19.9757 19.9882 19.9947 19.9979 19.9993 19.9999 20.0001 20.0002 20.0002 20.0002 20.0001 20.0001 20.0001 20 20 20 20 19.9999 19.9999 19.9999 19.9998 19.9998 19.9998 19.9998 19.9997 19.9995 19.9993 19.9988 19.9981 19.9969 19.9952 19.9933 19.9918 19.9926 19.9994 20.0187 20.0602 20.1367 20.2615 20.4418 20.667 20.891 
19.691 19.5663 19.59 19.6731 19.7658 19.8449 19.9038 19.9437 19.9687 19.9835 19.9917 19.9961 19.9982 19.9993 19.9997 19.9999 20 20 20.0001 20 20 20 20 20 20 20 20 19.9999 19.9999 19.9999 19.9999 19.9998 19.9998 19.9996 19.9993 19.9987 19.9978 19.9962 19.9938 19.9905 19.987 19.9846 19.9869 20.0001 20.0346 20.1046 20.2268 20.4147 20.6671 20.9511 
19.8436 19.6513 19.6286 19.6839 19.7622 19.8359 19.8941 19.9354 19.9626 19.9793 19.989 19.9944 19.9973 19.9987 19.9994 19.9998 19.9999 20 20 20 20 20 20 20 20 20 20 20 20 20 19.9999 19.9999 19.9998 19.9996 19.9993 19.9986 19.9974 19.9955 19.9924 19.988 19.9825 19.977 19.9747 19.9815 20.0081 20.0699 20.1866 20.3775 20.6509 20.9877 
20 19.7449 19.6764 19.7024 19.7646 19.8309 19.8869 19.9287 19.9573 19.9756 19.9866 19.9929 19.9964 19.9982 19.9992 19.9996 19.9998 19.9999 20 20 20 20 20 20 20 20 20 20 20 20 19.9999 19.9999 19.9998 19.9996 19.9992 19.9985 19.9971 19.9948 19.9912 19.9857 19.9784 19.97 19.9631 19.9634 19.9814 20.0335 20.1418 20.3309 20.6186 21 
20.1564 19.8448 19.7321 19.7282 19.7727 19.83 19.8826 19.9238 19.9531 19.9725 19.9845 19.9916 19.9956 19.9978 19.9989 19.9995 19.9998 19.9999 20 20 20 20 20 20 20 20 20 20 20 20 20 19.9999 19.9998 19.9996 19.9992 19.9984 19.9969 19.9943 19.9902 19.9838 19.9749 19.9637 19.9524 19.9462 19.9552 19.9962 20.0935 20.2762 20.5711 20.9877 
20.309 19.9486 19.7945 19.7608 19.7864 19.8334 19.8812 19.9208 19.9501 19.9701 19.9828 19.9905 19.995 19.9974 19.9987 19.9994 19.9997 19.9999 19.9999 20 20 20 20 20 20 20 20 20 20 20 20 19.9999 19.9998 19.9996 19.9991 19.9983 19.9967 19.994 19.9894 19.9823 19.9719 19.9583 19.9429 19.9303 19.9301 19.9591 20.0429 20.2147 20.5095 20.9511 
20.454 20.0536 19.8619 19.7992 19.8054 19.8409 19.8826 19.9197 19.9483 19.9684 19.9816 19.9897 19.9944 19.9971 19.9986 19.9993 19.9997 19.9999 19.9999 20 20 20 20 20 20 20 20 20 20 20 20 19.9999 19.9998 19.9996 19.9991 19.9983 19.9966 19.9938 19.9889 19.9812 19.9697 19.9539 19.9347 19.9161 19.9066 19.9229 19.9912 20.1479 20.4354 20.891 
20.5878 20.1572 19.9327 19.8426 19.8292 19.8522 19.887 19.9206 19.9478 19.9675 19.9808 19.9891 19.9941 19.9969 19.9984 19.9992 19.9996 19.9998 19.9999 20 20 20 20 20 20 20 20 20 20 20 20 19.9999 19.9998 19.9996 19.9991 19.9983 19.9966 19.9937 19.9887 19.9806 19.9682 19.9506 19.9282 19.9039 19.8855 19.8887 19.9398 20.0775 20.3505 20.809 
20.7071 20.257 20.0052 19.8898 19.8572 19.8673 19.8942 19.9235 19.9486 19.9674 19.9804 19.9888 19.9938 19.9967 19.9983 19.9992 19.9996 19.9998 19.9999 20 20 20 20 20 20 20 20 20 20 20 20 19.9999 19.9998 19.9996 19.9992 19.9983 19.9967 19.9938 19.9888 19.9804 19.9674 19.9486 19.9235 19.8942 19.8673 19.8572 19.8898 20.0052 20.257 20.7071 
20.809 20.3505 20.0775 19.9398 19.8887 19.8855 19.9039 19.9282 19.9506 19.9682 19.9806 19.9887 19.9937 19.9966 19.9983 19.9991 19.9996 19.9998 19.9999 20 20 20 20 20 20 20 20 20 20 20 20 19.9999 19.9998 19.9996 19.9992 19.9984 19.9969 19.9941 19.9891 19.9808 19.9675 19.9478 19.9206 19.887 19.8522 19.8292 19.8426 19.9327 20.1572 20.5878 
20.891 20.4354 20.1479 19.9912 19.9229 19.9066 19.9161 19.9347 19.9539 19.9697 19.9812 19.9889 19.9938 19.9966 19.9983 19.9991 19.9996 19.9998 19.9999 20 20 20 20 20 20 20 20 20 20 20 20 19.9999 19.9999 19.9997 19.9993 19.9986 19.9971 19.9944 19.9897 19.9816 19.9684 19.9483 19.9197 19.8826 19.8409 19.8054 19.7992 19.8619 20.0536 20.454 
20.9511 20.5095 20.2147 20.0429 19.9591 19.9301 19.9303 19.9429 19.9583 19.9719 19.9823 19.9894 19.994 19.9967 19.9983 19.9991 19.9996 19.9998 19.9999 20 20 20 20 20 20 20 20 20 20 20 20 19.9999 19.9999 19.9997 19.9994 19.9987 19.9974 19.995 19.9905 19.9828 19.9701 19.9501 19.9208 19.8812 19.8334 19.7864 19.7608 19.7945 19.9486 20.309 
20.9877 20.5711 20.2762 20.0935 19.9962 19.9552 19.9462 19.9524 19.9637 19.9748 19.9838 19.9902 19.9943 19.9969 19.9984 19.9992 19.9996 19.9998 19.9999 19.9999 20 20 20 20 20 20 20 20 20 20 20 20 19.9999 19.9998 19.9995 19.9989 19.9978 19.9956 19.9916 19.9845 19.9725 19.9531 19.9238 19.8826 19.83 19.7727 19.7282 19.7321 19.8448 20.1564 
21 20.6186 20.3309 20.1418 20.0335 19.9814 19.9634 19.9631 19.97 19.9784 19.9857 19.9912 19.9948 19.9971 19.9984 19.9992 19.9996 19.9998 19.9999 19.9999 19.9999 20 20 20 20 20 20 20 20 20 20 20 19.9999 19.9999 19.9996 19.9992 19.9983 19.9964 19.9929 19.9866 19.9756 19.9573 19.9288 19.887 19.8309 19.7646 19.7024 19.6764 19.7449 20 
20.9877 20.6509 20.3775 20.1866 20.0699 20.0081 19.9815 19.9747 19.977 19.9825 19.988 19.9924 19.9954 19.9974 19.9986 19.9992 19.9996 19.9997 19.9998 19.9999 19.9999 19.9999 19.9999 19.9999 20 20 20 20 20 20 20 20 20 20 19.9998 19.9995 19.9988 19.9973 19.9945 19.9891 19.9793 19.9626 19.9355 19.8941 19.8359 19.7622 19.6839 19.6286 19.6513 19.8436 
20.9511 20.6671 20.4148 20.2269 20.1046 20.0346 20.0001 19.9869 19.9846 19.987 19.9905 19.9937 19.9961 19.9977 19.9986 19.9992 19.9995 19.9997 19.9997 19.9998 19.9998 19.9998 19.9998 19.9999 19.9999 19.9999 20 20 20 20 20.0001 20.0001 20.0001 20.0001 20 19.9998 19.9994 19.9983 19.9962 19.9918 19.9836 19.9688 19.9438 19.9039 19.845 19.7658 19.6732 19.59 19.5663 19.691 
20.891 20.667 20.4418 20.2615 20.1368 20.0603 20.0187 19.9994 19.9926 19.9917 19.9932 19.9951 19.9968 19.9979 19.9987 19.9991 19.9993 19.9995 19.9995 19.9996 19.9996 19.9996 19.9997 19.9997 19.9998 19.9999 19.9999 20 20 20.0001 20.0002 20.0002 20.0003 20.0003 20.0004 20.0003 20.0001 19.9995 19.9981 19.9949 19.9884 19.9759 19.9536 19.9161 19.858 19.7752 19.6706 19.5615 19.4919 19.546 
20.809 20.6504 20.458 20.2897 20.1656 20.0844 20.0368 20.0119 20.0006 19.9966 19.9959 19.9965 19.9973 19.998 19.9985 19.9988 19.9989 19.999 19.9991 19.9991 19.9992 19.9993 19.9994 19.9995 19.9996 19.9997 19.9999 20 20.0001 20.0003 20.0004 20.0005 20.0007 20.0008 20.0009 20.001 20.0011 20.001 20.0003 19.9983 19.9937 19.9838 19.9647 19.9306 19.8745 19.7902 19.6761 19.5438 19.4301 19.4122 
20.7071 20.6178 20.4629 20.3108 20.1902 20.1064 20.0539 20.024 20.0085 20.0013 19.9985 19.9977 19.9976 19.9978 19.9979 19.998 19.9981 19.9982 19.9983 19.9983 19.9985 19.9986 19.9988 19.999 19.9993 19.9995 19.9998 20.0001 20.0003 20.0006 20.0009 20.0011 20.0014 20.0016 20.0019 20.0022 20.0025 20.0028 20.0029 20.0022 19.9995 19.9924 19.9769 19.9469 19.8943 19.8104 19.6897 19.5374 19.3824 19.2929 
20.5878 20.57 20.4564 20.3242 20.2102 20.1257 20.0695 20.0352 20.0158 20.0056 20.0006 19.9983 19.9973 19.9968 19.9967 19.9966 19.9965 19.9966 19.9967 19.9969 19.9971 19.9974 19.9978 19.9983 19.9987 19.9992 19.9998 20.0003 20.0008 20.0013 20.0018 20.0023 20.0027 20.0031 20.0035 20.004 20.0046 20.0054 20.0062 20.0067 20.006 20.0017 19.9902 19.965 19.917 19.8355 19.711 19.5425 19.3498 19.191 
20.454 20.5081 20.4386 20.3295 20.2247 20.1416 20.083 20.045 20.022 20.0089 20.0017 19.9978 19.9958 19.9947 19.9941 19.9938 19.9937 19.9937 19.994 19.9943 19.9948 19.9955 19.9962 19.997 19.998 19.9989 19.9999 20.0009 20.0019 20.0028 20.0037 20.0044 20.0052 20.0058 20.0065 20.0072 20.008 20.0092 20.0106 20.0122 20.0133 20.0119 20.0044 19.9843 19.9421 19.8649 19.7396 19.5588 19.3333 19.109 
20.309 20.4336 20.4097 20.3262 20.2331 20.1533 20.0935 20.0526 20.0263 20.0103 20.0009 19.9954 19.9922 19.9904 19.9894 19.9888 19.9887 19.9889 19.9894 19.9902 19.9912 19.9924 19.9938 19.9954 19.997 19.9988 20.0006 20.0023 20.004 20.0057 20.0071 20.0085 20.0096 20.0107 20.0116 20.0125 20.0135 20.0149 20.0168 20.0192 20.0218 20.0229 20.0193 20.0047 19.9688 19.8976 19.7744 19.5859 19.3331 19.0489 
20.1564 20.3481 20.3701 20.314 20.2346 20.1596 20.0998 20.0566 20.0274 20.0087 19.9969 19.9897 19.9853 19.9827 19.9812 19.9806 19.9806 19.9812 19.9823 19.9838 19.9857 19.988 19.9906 19.9934 19.9963 19.9994 20.0025 20.0055 20.0084 20.0111 20.0135 20.0156 20.0174 20.0188 20.02 20.021 20.022 20.0233 20.0253 20.0281 20.0317 20.0348 20.0347 20.0253 19.9963 19.9325 19.8143 19.6226 19.349 19.0123 
20 20.2532 20.3199 20.2919 20.2276 20.1588 20.0999 20.0551 20.0233 20.0019 19.9879 19.9789 19.9733 19.9699 19.9682 19.9677 19.9682 19.9697 19.9719 19.9748 19.9784 19.9825 19.987 19.9918 19.9969 20.002 20.0071 20.012 20.0166 20.0208 20.0245 20.0277 20.0302 20.032 20.0333 20.0341 20.0347 20.0355 20.0368 20.0393 20.043 20.0472 20.0497 20.045 20.0229 19.9675 19.857 19.6671 19.3801 19 
19.8436 20.1506 20.2589 20.2585 20.2098 20.1482 20.0911 20.0451 20.0111 19.9872 19.971 19.9604 19.9538 19.9501 19.9486 19.9489 19.9507 19.9538 19.9582 19.9636 19.9699 19.977 19.9846 19.9926 20.0008 20.009 20.0169 20.0245 20.0314 20.0376 20.0428 20.0471 20.0502 20.0522 20.0531 20.0531 20.0525 20.0517 20.0514 20.0522 20.0546 20.0586 20.0624 20.0612 20.0455 19.9993 19.8993 19.7166 19.4245 19.0123 
19.691 20.0413 20.186 20.2111 20.1777 20.1235 20.0689 20.0225 19.9868 19.9609 19.9432 19.9316 19.9248 19.9217 19.9215 19.9238 19.9283 19.9347 19.9428 19.9523 19.963 19.9746 19.9869 19.9995 20.012 20.0243 20.036 20.0469 20.0565 20.0648 20.0715 20.0764 20.0796 20.0809 20.0804 20.0783 20.0751 20.0711 20.0674 20.0647 20.064 20.0656 20.0687 20.0694 20.0592 20.0228 19.9359 19.7665 19.4794 19.0489 
19.546 19.9258 20.0987 20.1453 20.1257 20.079 20.0275 19.9818 19.9456 19.9192 19.9013 19.8904 19.8852 19.8846 19.8878 19.8944 19.9039 19.916 19.9301 19.9461 19.9633 19.9815 20.0001 20.0188 20.0369 20.0542 20.0701 20.0843 20.0965 20.1062 20.1134 20.1178 20.1193 20.118 20.1141 20.1077 20.0994 20.0899 20.0801 20.0714 20.0649 20.0616 20.0616 20.062 20.0561 20.0295 19.9589 19.8098 19.5402 19.109 
19.4122 19.8035 19.9931 20.055 20.0466 20.0074 19.9603 19.9174 19.8834 19.8592 19.8443 19.8374 19.8371 19.8426 19.8529 19.8674 19.8855 19.9065 19.9299 19.9551 19.9814 20.0081 20.0347 20.0604 20.0846 20.1067 20.1262 20.1426 20.1555 20.1646 20.1696 20.1705 20.1672 20.1599 20.1489 20.1346 20.1177 20.0991 20.08 20.0619 20.0466 20.0356 20.0297 20.0278 20.0246 20.0083 19.9573 19.8372 19.6003 19.191 
19.2929 19.6724 19.8635 19.9322 19.9322 19.901 19.8615 19.8257 19.7989 19.7825 19.7763 19.7791 19.7896 19.8069 19.8298 19.8573 19.8886 19.9229 19.959 19.9963 20.0336 20.0701 20.1049 20.1371 20.1659 20.1906 20.2107 20.2255 20.2349 20.2384 20.2361 20.2279 20.2142 20.1954 20.1719 20.1445 20.1142 20.0822 20.0499 20.0193 19.9925 19.9714 19.9578 19.9518 19.9506 19.9452 19.9179 19.8365 19.6513 19.2929 
19.191 19.5297 19.7033 19.7696 19.7762 19.7563 19.7305 19.7098 19.6992 19.6999 19.7116 19.7332 19.7632 19.8003 19.843 19.8899 19.9398 19.9913 20.043 20.0938 20.1422 20.1871 20.2274 20.2621 20.2904 20.3115 20.3249 20.3304 20.3277 20.3169 20.2984 20.2725 20.2399 20.2016 20.1584 20.1115 20.0625 20.0128 19.9644 19.9193 19.88 19.8487 19.8279 19.8188 19.8205 19.828 19.8284 19.7959 19.6836 19.4122 
19.109 19.3721 19.508 19.5649 19.5803 19.5801 19.5799 19.588 19.6076 19.6395 19.6826 19.7355 19.7962 19.8627 19.9331 20.0055 20.0778 20.1484 20.2153 20.2769 20.3317 20.3784 20.4158 20.4429 20.4591 20.464 20.4575 20.4397 20.4111 20.3723 20.3244 20.2686 20.2061 20.1386 20.0678 19.9956 19.9238 19.8546 19.7901 19.7326 19.6845 19.6482 19.626 19.6198 19.6301 19.6548 19.687 19.7105 19.6895 19.546 
19.0489 19.198 19.2814 19.3301 19.3658 19.4022 19.4474 19.5047 19.5748 19.6565 19.7479 19.8465 19.9496 20.0543 20.1579 20.2578 20.3514 20.4365 20.5107 20.5725 20.6201 20.6525 20.6688 20.6686 20.652 20.6193 20.5713 20.5093 20.4348 20.3496 20.2557 20.1556 20.0516 19.9464 19.8426 19.7427 19.6494 19.5651 19.4921 19.4325 19.3885 19.3618 19.3539 19.366 19.3985 19.4507 19.5201 19.6002 19.6742 19.691 
19.0123 19.0123 19.0489 19.109 19.191 19.2929 19.4122 19.546 19.691 19.8436 20 20.1564 20.309 20.454 20.5878 20.7071 20.809 20.891 20.9511 20.9877 21 20.9877 20.9511 20.891 20.809 20.7071 20.5878 20.454 20.309 20.1564 20 19.8436 19.691 19.546 19.4122 19.2929 19.191 19.109 19.0489 19.0123 19 19.0123 19.0489 19.109 19.191 19.2929 19.4122 19.546 19.691 19.8436 
