# vtk DataFile Version 3.0
Temperature distribution on a 2D grid
ASCII

DATASET STRUCTURED_POINTS
DIMENSIONS 50 50 1
ORIGIN 0.0 0.0 0.0
SPACING 0.01 0.01 1.0

POINT_DATA 2500
SCALARS temperature double
LOOKUP_TABLE default
20.7705 19.3387 19.4642 19.6029 19.7513 19.9059 20.0628 20.2181 20.3681 20.509 20.6374 20.7501 20.8443 20.9178 20.9686 20.9956 20.998 20.9759 20.9298 20.8607 20.7705 20.6613 20.5358 20.3971 20.2487 20.0941 19.9372 19.7819 19.6319 19.491 19.3626 19.2499 19.1557 19.0822 19.0314 19.0044 19.002 19.0241 19.0702 19.1393 19.2295 19.3387 19.4642 19.6029 19.7513 19.9059 20.0628 20.2181 20.3681 20.6374 
20.8607 20.1599 20.0071 20.0095 20.0741 20.1631 20.2587 20.3518 20.4368 20.5104 20.5704 20.6154 20.6444 20.657 20.6531 20.6328 20.5969 20.5462 20.4821 20.4061 20.3201 20.2263 20.1269 20.0243 19.9212 19.8201 19.7233 19.6334 19.5525 19.4827 19.4256 19.3826 19.3549 19.343 19.3473 19.3677 19.4035 19.4538 19.5172 19.5923 19.6771 19.7699 19.8694 19.9747 20.0862 20.2052 20.3337 20.4721 20.6145 20.7501 
20.9298 20.4695 20.2618 20.1921 20.1945 20.2307 20.2791 20.3274 20.3691 20.4007 20.4206 20.4283 20.4239 20.4081 20.3815 20.3451 20.3001 20.2475 20.1888 20.1255 20.0592 19.9914 19.9238 19.8582 19.796 19.7389 19.6882 19.6452 19.611 19.5863 19.5719 19.568 19.5747 19.592 19.6193 19.6558 19.7007 19.7525 19.8099 19.8713 19.9352 20.0008 20.0681 20.1385 20.2158 20.306 20.4164 20.552 20.7062 20.8443 
20.9759 20.5944 20.3657 20.2509 20.2084 20.2055 20.2206 20.2401 20.2563 20.2653 20.2656 20.257 20.2401 20.2158 20.1852 20.1495 20.1098 20.0673 20.0231 19.9784 19.9342 19.8918 19.852 19.8158 19.7843 19.758 19.7377 19.7239 19.7169 19.7169 19.7239 19.7377 19.7581 19.7844 19.816 19.852 19.8913 19.9328 19.9751 20.017 20.0575 20.0963 20.1347 20.1759 20.2266 20.2967 20.3985 20.5423 20.7261 20.9178 
20.998 20.6475 20.4035 20.2567 20.181 20.1499 20.1426 20.1448 20.1477 20.1469 20.1404 20.1279 20.11 20.0877 20.062 20.0342 20.0051 19.9757 19.9469 19.9194 19.894 19.8712 19.8517 19.8358 19.824 19.8165 19.8136 19.8153 19.8215 19.8322 19.847 19.8657 19.8877 19.9125 19.9394 19.9677 19.9965 20.0246 20.051 20.0748 20.0952 20.1126 20.1287 20.1484 20.18 20.2365 20.3347 20.4907 20.7096 20.9686 
20.9956 20.6697 20.4174 20.2484 20.1488 20.0975 20.0751 20.0671 20.0641 20.0605 20.0539 20.0437 20.03 20.0138 19.996 19.9774 19.959 19.9414 19.9252 19.9109 19.8988 19.8892 19.8825 19.8786 19.8778 19.88 19.8852 19.8932 19.9039 19.917 19.9322 19.9491 19.9673 19.9864 20.0058 20.0249 20.043 20.0592 20.0727 20.0826 20.0884 20.0905 20.0912 20.0957 20.1137 20.1604 20.256 20.4221 20.6723 20.9956 
20.9686 20.6752 20.4248 20.2432 20.1273 20.0615 20.0288 20.0147 20.0092 20.0061 20.0022 19.9962 19.9882 19.9786 19.9682 19.9577 19.9478 19.939 19.9315 19.9258 19.922 19.9202 19.9203 19.9225 19.9266 19.9326 19.9402 19.9493 19.9597 19.9711 19.9832 19.9959 20.0088 20.0215 20.0337 20.0449 20.0546 20.0621 20.0666 20.0673 20.0637 20.056 20.0466 20.0407 20.0485 20.0864 20.1775 20.3485 20.6213 20.998 
20.9178 20.6683 20.4306 20.2454 20.1198 20.0442 20.004 19.9857 19.979 19.9771 19.9762 19.9744 19.9714 19.9673 19.9627 19.9581 19.954 19.9508 19.9487 19.9479 19.9484 19.9503 19.9534 19.9577 19.9631 19.9695 19.9765 19.9842 19.9923 20.0007 20.009 20.0173 20.0252 20.0326 20.0392 20.0448 20.0489 20.0509 20.05 20.0454 20.0365 20.0232 20.0074 19.9941 19.9934 20.0223 20.1056 20.2745 20.5593 20.9759 
20.8443 20.6492 20.4343 20.2536 20.1239 20.0418 19.9961 19.9744 19.9666 19.9656 19.9668 19.9682 19.9688 19.9686 19.9678 19.967 19.9664 19.9663 19.967 19.9685 19.9708 19.9738 19.9776 19.982 19.9868 19.992 19.9974 20.0028 20.0083 20.0135 20.0185 20.0232 20.0274 20.031 20.034 20.0361 20.037 20.036 20.0326 20.0256 20.0142 19.998 19.9784 19.9595 19.951 19.9696 20.0415 20.2015 20.4878 20.9298 
20.7501 20.6176 20.4337 20.2642 20.1352 20.0495 19.9996 19.9748 19.9655 19.9643 19.9667 19.9699 19.9728 19.9749 19.9764 19.9776 19.9788 19.9802 19.982 19.9841 19.9867 19.9897 19.9929 19.9964 20 20.0036 20.0071 20.0105 20.0137 20.0165 20.019 20.0212 20.0229 20.0243 20.0252 20.0255 20.0249 20.0229 20.0187 20.0111 19.9991 19.9819 19.9598 19.9365 19.9203 19.9276 19.9848 20.1298 20.4075 20.8607 
20.6374 20.5728 20.4264 20.2738 20.1494 20.0626 20.0095 19.9817 19.9704 19.9684 19.9709 19.9748 19.9787 19.982 19.9847 19.9868 19.9887 19.9905 19.9924 19.9944 19.9966 19.9989 20.0012 20.0036 20.0059 20.0081 20.0101 20.0119 20.0134 20.0146 20.0155 20.0161 20.0165 20.0167 20.0167 20.0163 20.0154 20.0134 20.0095 20.0025 19.9909 19.9736 19.9501 19.9229 19.8993 19.8943 19.9344 20.059 20.3193 20.7705 
20.509 20.5152 20.411 20.2796 20.1633 20.0774 20.0222 19.9916 19.978 19.9745 19.9763 19.9801 19.9843 19.9879 19.9909 19.9933 19.9953 19.997 19.9986 20.0002 20.0017 20.0033 20.0048 20.0062 20.0075 20.0086 20.0095 20.0102 20.0107 20.0109 20.011 20.0108 20.0106 20.0103 20.01 20.0096 20.009 20.0076 20.0046 19.9986 19.9881 19.9713 19.947 19.9166 19.8857 19.8681 19.8892 19.9894 20.2247 20.6613 
20.3681 20.4455 20.3864 20.2798 20.1746 20.0916 20.0354 20.0023 19.9862 19.9809 19.9814 19.9846 19.9885 19.992 19.995 19.9973 19.9991 20.0005 20.0017 20.0028 20.0038 20.0047 20.0055 20.0062 20.0068 20.0072 20.0075 20.0076 20.0075 20.0072 20.0069 20.0064 20.006 20.0057 20.0055 20.0054 20.0053 20.0047 20.0028 19.9982 19.9889 19.973 19.9485 19.9154 19.8779 19.8477 19.8488 19.9216 20.1253 20.5358 
20.2181 20.3651 20.3527 20.2736 20.1819 20.1038 20.0476 20.0127 19.9942 19.9868 19.9858 19.988 19.9913 19.9945 19.9972 19.9993 20.0008 20.0019 20.0028 20.0035 20.004 20.0045 20.0049 20.0051 20.0053 20.0053 20.0052 20.005 20.0047 20.0043 20.0038 20.0033 20.003 20.0028 20.0028 20.0031 20.0036 20.0038 20.003 19.9997 19.9919 19.9771 19.9528 19.9178 19.8744 19.8322 19.8131 19.8563 20.0231 20.3971 
20.0628 20.2756 20.3103 20.2606 20.1846 20.113 20.0582 20.022 20.0014 19.9919 19.9894 19.9904 19.9929 19.9957 19.998 19.9999 20.0012 20.0021 20.0027 20.0032 20.0034 20.0036 20.0037 20.0037 20.0037 20.0036 20.0033 20.003 20.0027 20.0022 20.0018 20.0014 20.0011 20.0011 20.0014 20.0021 20.003 20.004 20.0042 20.0022 19.996 19.9826 19.959 19.9227 19.8744 19.8212 19.7822 19.7948 19.9205 20.2487 
19.9059 20.1793 20.2601 20.2409 20.1824 20.1191 20.0667 20.0301 20.0078 19.9965 19.9923 19.9921 19.9938 19.9961 19.9981 19.9998 20.0009 20.0017 20.0022 20.0024 20.0026 20.0026 20.0026 20.0025 20.0024 20.0022 20.002 20.0017 20.0013 20.001 20.0006 20.0003 20.0002 20.0003 20.0008 20.0017 20.0031 20.0046 20.0057 20.005 20.0003 19.9887 19.9663 19.9296 19.8776 19.8146 19.7567 19.7383 19.8198 20.0941 
19.7513 20.0785 20.2033 20.215 20.1754 20.1218 20.0732 20.0369 20.0135 20.0005 19.9948 19.9935 19.9944 19.9961 19.9978 19.9993 20.0003 20.001 20.0014 20.0016 20.0017 20.0017 20.0017 20.0016 20.0014 20.0013 20.0011 20.0008 20.0006 20.0003 20 19.9998 19.9997 19.9999 20.0005 20.0016 20.0032 20.0053 20.0072 20.0076 20.0046 19.9949 19.9742 19.9381 19.8835 19.8124 19.737 19.6881 19.7235 19.9372 
19.6029 19.9757 20.1415 20.1837 20.1638 20.1212 20.0775 20.0425 20.0184 20.0042 19.9971 19.9947 19.9948 19.996 19.9974 19.9987 19.9997 20.0004 20.0007 20.001 20.001 20.001 20.001 20.0009 20.0008 20.0007 20.0006 20.0004 20.0002 20 19.9998 19.9996 19.9996 19.9998 20.0004 20.0016 20.0034 20.0058 20.0083 20.0099 20.0086 20.0009 19.9825 19.9477 19.892 19.8145 19.7236 19.6454 19.634 19.7819 
19.4642 19.8735 20.076 20.1478 20.1481 20.1174 20.0797 20.0468 20.0228 20.0076 19.9993 19.9959 19.9952 19.9959 19.9971 19.9982 19.9991 19.9998 20.0002 20.0004 20.0005 20.0006 20.0006 20.0005 20.0005 20.0004 20.0003 20.0002 20 19.9999 19.9997 19.9995 19.9995 19.9997 20.0003 20.0015 20.0034 20.006 20.0091 20.0118 20.0121 20.0067 19.9909 19.9584 19.903 19.821 19.7169 19.6114 19.5534 19.6319 
19.3387 19.7743 20.0086 20.1081 20.1286 20.1107 20.0799 20.0499 20.0264 20.0107 20.0015 19.9972 19.9958 19.996 19.9968 19.9978 19.9987 19.9994 19.9998 20 20.0002 20.0003 20.0003 20.0003 20.0003 20.0002 20.0002 20.0001 20 19.9998 19.9997 19.9995 19.9995 19.9996 20.0001 20.0012 20.0031 20.006 20.0096 20.0132 20.0151 20.0122 19.9994 19.9699 19.9161 19.8317 19.7169 19.5869 19.4837 19.491 
19.2295 19.6807 19.941 20.0657 20.1059 20.1012 20.078 20.0517 20.0294 20.0135 20.0037 19.9985 19.9964 19.9962 19.9967 19.9976 19.9984 19.999 19.9995 19.9998 20 20.0001 20.0001 20.0002 20.0002 20.0002 20.0001 20.0001 20 19.9999 19.9997 19.9995 19.9994 19.9995 19.9999 20.0009 20.0027 20.0056 20.0096 20.0141 20.0176 20.0171 20.0077 19.9821 19.9313 19.8465 19.7239 19.5724 19.4267 19.3626 
19.1393 19.595 19.8749 20.0217 20.0805 20.0891 20.0742 20.0522 20.0317 20.016 20.0057 19.9999 19.9973 19.9965 19.9968 19.9975 19.9982 19.9988 19.9993 19.9996 19.9998 20 20 20.0001 20.0001 20.0001 20.0001 20.0001 20 19.9999 19.9997 19.9995 19.9993 19.9993 19.9996 20.0004 20.0022 20.0051 20.0094 20.0146 20.0196 20.0216 20.0158 19.9946 19.948 19.865 19.7376 19.5685 19.3839 19.2499 
19.0702 19.5192 19.8118 19.9771 20.0532 20.0749 20.0686 20.0514 20.0331 20.0182 20.0077 20.0014 19.9982 19.997 19.997 19.9975 19.9981 19.9987 19.9992 19.9995 19.9997 19.9999 20 20.0001 20.0001 20.0001 20.0001 20.0001 20 19.9999 19.9997 19.9994 19.9992 19.9991 19.9992 19.9999 20.0015 20.0044 20.0088 20.0147 20.021 20.0255 20.0234 20.0072 19.966 19.8868 19.7578 19.5752 19.3562 19.1557 
19.0241 19.4552 19.7533 19.9332 20.0246 20.0589 20.0613 20.0494 20.0338 20.0199 20.0095 20.0028 19.9992 19.9976 19.9973 19.9975 19.9981 19.9986 19.9991 19.9994 19.9997 19.9998 20 20 20.0001 20.0001 20.0001 20.0001 20 19.9998 19.9996 19.9994 19.9991 19.9989 19.9989 19.9994 20.0008 20.0035 20.008 20.0144 20.022 20.0287 20.0305 20.0196 19.9848 19.9114 19.7839 19.5923 19.3443 19.0822 
19.002 19.4047 19.701 19.8908 19.9954 20.0413 20.0525 20.0462 20.0337 20.0211 20.0111 20.0042 20.0002 19.9983 19.9976 19.9977 19.9981 19.9986 19.999 19.9994 19.9996 19.9998 19.9999 20 20.0001 20.0001 20.0001 20 20 19.9998 19.9996 19.9993 19.999 19.9987 19.9986 19.9989 20.0001 20.0026 20.007 20.0137 20.0223 20.0313 20.0367 20.0315 20.004 19.9382 19.8153 19.6195 19.3486 19.0314 
19.0044 19.3689 19.6559 19.8512 19.9663 20.0228 20.0424 20.0418 20.0327 20.0218 20.0124 20.0055 20.0012 19.999 19.998 19.9979 19.9982 19.9986 19.999 19.9994 19.9996 19.9998 19.9999 20 20 20.0001 20.0001 20 19.9999 19.9998 19.9996 19.9993 19.9989 19.9985 19.9983 19.9984 19.9993 20.0016 20.0059 20.0127 20.0221 20.033 20.0421 20.0426 20.023 19.9664 19.8513 19.656 19.3689 19.0044 
19.0314 19.3485 19.6194 19.8152 19.938 20.0037 20.0312 20.0365 20.031 20.022 20.0134 20.0067 20.0022 19.9997 19.9985 19.9982 19.9983 19.9987 19.999 19.9993 19.9996 19.9998 19.9999 20 20 20 20 20 19.9999 19.9998 19.9996 19.9993 19.9989 19.9984 19.998 19.998 19.9986 20.0006 20.0046 20.0114 20.0214 20.034 20.0465 20.0527 20.0416 19.9955 19.891 19.701 19.4048 19.002 
19.0822 19.3442 19.5922 19.7838 19.9112 19.9846 20.0193 20.0302 20.0284 20.0216 20.014 20.0077 20.0032 20.0004 19.999 19.9985 19.9985 19.9987 19.999 19.9993 19.9996 19.9997 19.9999 19.9999 20 20 20 20 19.9999 19.9998 19.9996 19.9993 19.9989 19.9984 19.9978 19.9976 19.9979 19.9995 20.0032 20.0098 20.0202 20.0341 20.0497 20.0615 20.0591 20.0248 19.9333 19.7534 19.4553 19.0241 
19.1557 19.3561 19.5751 19.7576 19.8866 19.9658 20.0069 20.0231 20.0252 20.0207 20.0143 20.0084 20.004 20.0011 19.9995 19.9988 19.9986 19.9988 19.999 19.9993 19.9995 19.9997 19.9998 19.9999 20 20 20 20 19.9999 19.9998 19.9997 19.9994 19.9989 19.9984 19.9978 19.9973 19.9974 19.9985 20.0017 20.0081 20.0185 20.0335 20.0517 20.0688 20.0751 20.0534 19.9773 19.8119 19.5192 19.0702 
19.2499 19.3838 19.5684 19.7375 19.8648 19.9478 19.9943 20.0154 20.0212 20.0192 20.0142 20.0089 20.0046 20.0017 19.9999 19.9991 19.9988 19.9988 19.999 19.9992 19.9995 19.9996 19.9998 19.9999 19.9999 20 20 20 20 19.9999 19.9998 19.9995 19.9991 19.9985 19.9978 19.9971 19.9969 19.9976 20.0003 20.0061 20.0164 20.032 20.0525 20.0745 20.0894 20.0807 20.0218 19.875 19.595 19.1393 
19.3626 19.4267 19.5723 19.7237 19.8463 19.931 19.9817 20.0073 20.0167 20.0171 20.0136 20.0091 20.0051 20.0021 20.0003 19.9993 19.9989 19.9988 19.999 19.9992 19.9994 19.9996 19.9997 19.9999 19.9999 20 20.0001 20.0001 20.0001 20.0001 20 19.9997 19.9993 19.9987 19.9979 19.9971 19.9966 19.9969 19.9989 20.0041 20.0139 20.0297 20.052 20.0783 20.1014 20.106 20.0658 19.9411 19.6808 19.2295 
19.491 19.4836 19.5867 19.7167 19.8314 19.9158 19.9695 19.9989 20.0116 20.0145 20.0126 20.0089 20.0053 20.0024 20.0005 19.9994 19.9989 19.9988 19.9989 19.9991 19.9993 19.9996 19.9997 19.9999 20 20.0001 20.0002 20.0003 20.0004 20.0004 20.0003 20.0001 19.9997 19.9991 19.9983 19.9973 19.9964 19.9962 19.9976 20.0019 20.011 20.0267 20.0501 20.0801 20.1109 20.1287 20.1082 20.0087 19.7744 19.3387 
19.6319 19.5532 19.6112 19.7165 19.8205 19.9024 19.9578 19.9902 20.006 20.0113 20.011 20.0083 20.0052 20.0025 20.0006 19.9995 19.999 19.9988 19.9989 19.9991 19.9994 19.9996 19.9999 20.0001 20.0003 20.0004 20.0006 20.0007 20.0008 20.0008 20.0008 20.0006 20.0002 19.9996 19.9987 19.9976 19.9964 19.9957 19.9963 19.9997 20.0079 20.023 20.047 20.0799 20.1175 20.1482 20.1478 20.076 19.8735 19.4642 
19.7819 19.6338 19.6451 19.7231 19.8139 19.8913 19.9469 19.9815 20 20.0076 20.0089 20.0073 20.0048 20.0024 20.0007 19.9996 19.999 19.9989 19.999 19.9993 19.9996 19.9999 20.0002 20.0005 20.0007 20.001 20.0012 20.0013 20.0014 20.0015 20.0015 20.0013 20.0009 20.0003 19.9993 19.9979 19.9964 19.9952 19.995 19.9974 20.0044 20.0186 20.0425 20.0775 20.1211 20.1638 20.1837 20.1414 19.9757 19.6029 
19.9372 19.7233 19.6876 19.7363 19.8115 19.8824 19.9369 19.973 19.9936 20.0034 20.0064 20.006 20.0042 20.0022 20.0007 19.9997 19.9992 19.9992 19.9994 19.9997 20.0001 20.0006 20.0009 20.0013 20.0016 20.0019 20.0021 20.0022 20.0023 20.0024 20.0023 20.0021 20.0017 20.0009 19.9998 19.9983 19.9964 19.9946 19.9936 19.9948 20.0004 20.0133 20.0367 20.0729 20.1215 20.1751 20.2148 20.2032 20.0784 19.7513 
20.0941 19.8195 19.7376 19.7558 19.8135 19.8762 19.9282 19.9648 19.9872 19.9989 20.0036 20.0044 20.0035 20.0021 20.0009 20.0002 19.9999 20 20.0003 20.0008 20.0013 20.0018 20.0023 20.0026 20.003 20.0032 20.0034 20.0035 20.0035 20.0034 20.0032 20.0028 20.0023 20.0014 20.0001 19.9983 19.9961 19.9937 19.9918 19.9918 19.9959 20.0071 20.0294 20.066 20.1184 20.1818 20.2404 20.2598 20.1791 19.9059 
20.2487 19.9201 19.794 19.7811 19.8199 19.8729 19.9211 19.9573 19.981 19.9945 20.0009 20.0031 20.0031 20.0025 20.0018 20.0014 20.0013 20.0016 20.0021 20.0027 20.0033 20.0038 20.0043 20.0046 20.0049 20.005 20.005 20.0048 20.0046 20.0043 20.0038 20.0032 20.0024 20.0012 19.9997 19.9976 19.9949 19.992 19.9893 19.9881 19.9906 20 20.0206 20.0569 20.1119 20.1837 20.2599 20.3098 20.2754 20.0628 
20.3971 20.0228 19.8555 19.812 19.8309 19.8729 19.9162 19.9514 19.9758 19.9908 19.9989 20.0026 20.0038 20.0039 20.0038 20.0039 20.0041 20.0046 20.0051 20.0058 20.0063 20.0068 20.007 20.0072 20.0071 20.0069 20.0065 20.0059 20.0053 20.0045 20.0036 20.0025 20.0013 19.9998 19.998 19.9956 19.9926 19.9891 19.9857 19.9834 19.9844 19.9919 20.0105 20.0458 20.1022 20.1808 20.2728 20.3521 20.3648 20.2181 
20.5358 20.1251 19.9212 19.8482 19.847 19.8771 19.9147 19.948 19.9728 19.9891 19.9988 20.0039 20.0063 20.0074 20.0079 20.0083 20.0087 20.0092 20.0097 20.0101 20.0104 20.0104 20.0103 20.0098 20.0091 20.0082 20.0072 20.0059 20.0045 20.0031 20.0015 19.9999 19.9983 19.9964 19.9942 19.9916 19.9884 19.9847 19.9808 19.9777 19.9773 19.983 19.9996 20.0332 20.09 20.1735 20.2792 20.3861 20.4454 20.3681 
20.6613 20.225 19.99 19.89 19.8691 19.8869 19.918 19.9488 19.9735 19.9908 20.0019 20.0083 20.0118 20.0137 20.0146 20.0152 20.0155 20.0157 20.0157 20.0155 20.015 20.0141 20.013 20.0115 20.0097 20.0078 20.0056 20.0033 20.001 19.9987 19.9964 19.9942 19.9921 19.9899 19.9877 19.9851 19.9821 19.9785 19.9746 19.9712 19.9701 19.9743 19.9889 20.0204 20.0765 20.1632 20.2799 20.4114 20.5156 20.509 
20.7705 20.3206 20.0616 19.9379 19.8987 19.9043 19.9285 19.9561 19.9801 19.9979 20.0099 20.0173 20.0215 20.0236 20.0245 20.0246 20.0242 20.0234 20.0222 20.0205 20.0185 20.0161 20.0133 20.0101 20.0068 20.0033 19.9997 19.9961 19.9927 19.9895 19.9866 19.984 19.9817 19.9797 19.9779 19.976 19.9738 19.9712 19.9681 19.9653 19.9641 19.9675 19.9804 20.0097 20.0641 20.1519 20.2765 20.4288 20.5742 20.6374 
20.8607 20.4106 20.1358 19.9933 19.9378 19.9317 19.9488 19.9726 19.995 20.0124 20.0244 20.0318 20.0357 20.0371 20.0368 20.0354 20.0331 20.0302 20.0267 20.0226 20.018 20.0131 20.0079 20.0025 19.997 19.9917 19.9865 19.9817 19.9774 19.9737 19.9707 19.9684 19.9668 19.9659 19.9655 19.9654 19.9652 19.9647 19.9638 19.9626 19.9625 19.9661 19.9778 20.0048 20.0565 20.143 20.2717 20.4397 20.6209 20.7501 
20.9298 20.4939 20.2132 20.0576 19.9889 19.9722 19.9817 20.0007 20.02 20.0354 20.0458 20.0514 20.0532 20.0521 20.049 20.0443 20.0385 20.0319 20.0245 20.0167 20.0086 20.0003 19.992 19.9839 19.9762 19.9692 19.9629 19.9575 19.9532 19.9502 19.9484 19.9478 19.9486 19.9505 19.9533 19.9566 19.9602 19.9635 19.9661 19.9682 19.9705 19.9751 19.9863 20.0109 20.0585 20.141 20.2691 20.4462 20.6557 20.8443 
20.9759 20.5698 20.2942 20.1325 20.054 20.0276 20.0289 20.0413 20.0552 20.0659 20.0718 20.0728 20.0697 20.0635 20.0549 20.0446 20.0331 20.0209 20.0082 19.9954 19.9828 19.9707 19.9593 19.949 19.9399 19.9323 19.9264 19.9223 19.9202 19.9201 19.9219 19.9258 19.9315 19.9387 19.9472 19.9564 19.9659 19.9749 19.9829 19.9896 19.9954 20.002 20.0128 20.0342 20.076 20.1509 20.2728 20.4511 20.6792 20.9178 
20.998 20.6372 20.3784 20.2179 20.1331 20.0975 20.0889 20.0916 20.0963 20.098 20.0951 20.0874 20.0756 20.0606 20.0433 20.0247 20.0053 19.9859 19.9668 19.9486 19.9318 19.9167 19.9036 19.893 19.885 19.8798 19.8776 19.8785 19.8823 19.8892 19.8987 19.9108 19.9251 19.9412 19.9585 19.9763 19.9939 20.0104 20.025 20.0371 20.0467 20.0548 20.0643 20.081 20.114 20.1767 20.2853 20.4552 20.6909 20.9686 
20.9956 20.6941 20.4628 20.3099 20.2212 20.1753 20.1532 20.1413 20.131 20.1179 20.1005 20.0787 20.0535 20.0258 19.9968 19.9676 19.9391 19.9121 19.8873 19.8653 19.8467 19.8319 19.8213 19.8151 19.8134 19.8164 19.8238 19.8357 19.8516 19.8712 19.894 19.9194 19.9469 19.9756 20.0046 20.0332 20.0602 20.0846 20.1054 20.1217 20.1332 20.1404 20.1456 20.1536 20.173 20.217 20.3038 20.4548 20.687 20.9956 
20.9686 20.7347 20.5379 20.3963 20.3032 20.2433 20.2018 20.1679 20.135 20.0997 20.0612 20.02 19.977 19.9338 19.8916 19.8519 19.8157 19.7841 19.7578 19.7375 19.7237 19.7167 19.7168 19.7238 19.7376 19.7579 19.7841 19.8157 19.8519 19.8917 19.9342 19.9784 20.0231 20.0672 20.1095 20.1487 20.1838 20.2133 20.2363 20.2517 20.2592 20.2591 20.253 20.245 20.2428 20.2591 20.3135 20.4338 20.6536 20.998 
20.9178 20.7456 20.5823 20.4499 20.3476 20.2663 20.1966 20.1316 20.0675 20.0028 19.9376 19.8732 19.8112 19.7532 19.7009 19.6558 19.6191 19.5918 19.5746 19.5678 19.5717 19.5862 19.6109 19.6451 19.6881 19.7388 19.796 19.8581 19.9238 19.9914 20.0592 20.1256 20.1888 20.2474 20.2998 20.3446 20.3805 20.4064 20.4212 20.4244 20.4158 20.3957 20.3659 20.3298 20.2938 20.2697 20.2772 20.3512 20.5503 20.9759 
20.8443 20.6954 20.5525 20.4194 20.2975 20.184 20.0757 19.9708 19.8689 19.7708 19.6783 19.5933 19.5179 19.4541 19.4036 19.3677 19.3473 19.3429 19.3548 19.3825 19.4255 19.4826 19.5525 19.6334 19.7233 19.82 19.9212 20.0243 20.1268 20.2263 20.3201 20.4061 20.4821 20.5462 20.5968 20.6326 20.6525 20.6561 20.643 20.6134 20.5679 20.5077 20.4349 20.3527 20.2663 20.1848 20.1247 20.1216 20.2635 20.9298 
20.7501 20.509 20.3681 20.2181 20.0628 19.9059 19.7513 19.6029 19.4642 19.3387 19.2295 19.1393 19.0702 19.0241 19.002 19.0044 19.0314 19.0822 19.1557 19.2499 19.3626 19.491 19.6319 19.7819 19.9372 20.0941 20.2487 20.3971 20.5358 20.6613 20.7705 20.8607 20.9298 20.9759 20.998 20.9956 20.9686 20.9178 20.8443 20.7501 20.6374 20.509 20.3681 20.2181 20.0628 19.9059 19.7513 19.6029 19.4642 20.8607 
