# vtk DataFile Version 3.0
Temperature distribution on a 2D grid
ASCII

DATASET STRUCTURED_POINTS
DIMENSIONS 50 50 1
ORIGIN 0.0 0.0 0.0
SPACING 0.01 0.01 1.0

POINT_DATA 2500
SCALARS temperature double
LOOKUP_TABLE default
20.5358 19.3387 19.2295 19.1393 19.0702 19.0241 19.002 19.0044 19.0314 19.0822 19.1557 19.2499 19.3626 19.491 19.6319 19.7819 19.9372 20.0941 20.2487 20.3971 20.5358 20.6613 20.7705 20.8607 20.9298 20.9759 20.998 20.9956 20.9686 20.9178 20.8443 20.7501 20.6374 20.509 20.3681 20.2181 20.0628 19.9059 19.7513 19.6029 19.4642 19.3387 19.2295 19.1393 19.0702 19.0241 19.002 19.0044 19.0314 19.1557 
20.3971 19.8566 19.6231 19.4915 19.4191 19.3877 19.3877 19.4134 19.4602 19.5244 19.6029 19.6926 19.7907 19.8944 20.0009 20.1074 20.2114 20.3102 20.4014 20.4827 20.5521 20.608 20.6488 20.6737 20.682 20.6735 20.6484 20.6073 20.5513 20.4817 20.4003 20.309 20.2101 20.106 19.9994 19.8928 19.7889 19.6904 19.5999 19.5198 19.4525 19.4001 19.3644 19.3463 19.3454 19.3584 19.3773 19.3862 19.3573 19.2499 
20.2487 20.0725 19.9126 19.7959 19.724 19.691 19.6896 19.7128 19.7546 19.81 19.8746 19.945 20.0183 20.0919 20.1637 20.2317 20.2941 20.3493 20.3959 20.4328 20.459 20.4739 20.4772 20.4687 20.4486 20.4175 20.3762 20.3255 20.2669 20.2017 20.1315 20.0581 19.9832 19.9088 19.8367 19.7687 19.7065 19.652 19.6066 19.5721 19.5499 19.5417 19.5485 19.5706 19.6059 19.648 19.6823 19.6814 19.5988 19.3626 
20.0941 20.1397 20.0812 20.0034 19.9407 19.904 19.8933 19.9043 19.9316 19.9702 20.0155 20.0641 20.1132 20.1606 20.2047 20.244 20.2774 20.3041 20.3234 20.3346 20.3377 20.3324 20.319 20.2976 20.269 20.2337 20.1927 20.147 20.0976 20.0458 19.9929 19.9402 19.8889 19.8404 19.7959 19.7566 19.7235 19.6976 19.6802 19.6722 19.675 19.6898 19.7178 19.7592 19.8116 19.8672 19.908 19.9005 19.7888 19.491 
19.9372 20.126 20.1552 20.12 20.0717 20.0337 20.0137 20.0114 20.0233 20.0451 20.0725 20.1024 20.1323 20.1602 20.1849 20.2054 20.2211 20.2313 20.236 20.2348 20.2278 20.2152 20.1974 20.1747 20.1476 20.117 20.0834 20.0478 20.0111 19.974 19.9376 19.9028 19.8703 19.8411 19.8158 19.7952 19.78 19.7708 19.7683 19.7735 19.7876 19.8121 19.8484 19.8973 19.9567 20.019 20.0658 20.0612 19.9456 19.6319 
19.7819 20.0669 20.1647 20.1687 20.1369 20.101 20.0748 20.062 20.0614 20.0696 20.0832 20.0993 20.1156 20.1306 20.1432 20.1526 20.1585 20.1606 20.1587 20.153 20.1435 20.1304 20.1142 20.0952 20.0738 20.0506 20.0261 20.001 19.9759 19.9514 19.928 19.9065 19.8872 19.8708 19.8577 19.8481 19.8427 19.8418 19.846 19.8563 19.8738 19.9005 19.9381 19.9884 20.0503 20.1174 20.1723 20.1801 20.0801 19.7819 
19.6319 19.9829 20.1339 20.1721 20.1577 20.1271 20.0986 20.0794 20.0702 20.069 20.0731 20.08 20.0876 20.0947 20.1003 20.1038 20.105 20.1038 20.1 20.0937 20.0852 20.0746 20.0621 20.0481 20.033 20.017 20.0006 19.9841 19.9681 19.9529 19.9388 19.9262 19.9155 19.9069 19.9006 19.897 19.8962 19.8986 19.9049 19.9158 19.9329 19.9581 19.9941 20.0431 20.1056 20.1772 20.2428 20.2697 20.1986 19.9372 
19.491 19.8872 20.0797 20.1479 20.1514 20.1287 20.1015 20.0795 20.0654 20.0585 20.0568 20.058 20.0605 20.0632 20.0651 20.0659 20.0653 20.0632 20.0595 20.0544 20.048 20.0404 20.0319 20.0225 20.0126 20.0023 19.992 19.9819 19.9723 19.9633 19.9553 19.9483 19.9427 19.9384 19.9358 19.9349 19.9359 19.9392 19.9452 19.9549 19.9699 19.9924 20.0255 20.0723 20.1349 20.2109 20.2885 20.3384 20.3044 20.0941 
19.3626 19.788 20.0132 20.1081 20.1294 20.1167 20.0936 20.072 20.0561 20.0463 20.0413 20.0394 20.0392 20.0396 20.0398 20.0395 20.0384 20.0365 20.0337 20.0301 20.0258 20.0209 20.0154 20.0096 20.0035 19.9974 19.9913 19.9854 19.9799 19.9749 19.9705 19.9668 19.964 19.962 19.9611 19.9613 19.9627 19.9656 19.9706 19.9786 19.9911 20.0106 20.0405 20.0848 20.1469 20.227 20.3167 20.3912 20.3986 20.2487 
19.2499 19.6912 19.9415 20.0599 20.099 20.0977 20.0808 20.0618 20.0462 20.0356 20.0292 20.0259 20.0243 20.0236 20.0231 20.0225 20.0215 20.0201 20.0182 20.0159 20.0133 20.0103 20.007 20.0036 20.0001 19.9966 19.9932 19.9899 19.9869 19.9842 19.982 19.9801 19.9788 19.9779 19.9777 19.9782 19.9794 19.9817 19.9855 19.9917 20.0019 20.0186 20.0453 20.0868 20.1478 20.2311 20.3319 20.4306 20.4811 20.3971 
19.1557 19.6007 19.8691 20.008 20.0642 20.0751 20.0659 20.051 20.0373 20.0272 20.0207 20.0168 20.0147 20.0136 20.0129 20.0122 20.0115 20.0106 20.0094 20.0081 20.0065 20.0048 20.003 20.0011 19.9992 19.9973 19.9955 19.9938 19.9922 19.9908 19.9897 19.9888 19.9882 19.9879 19.9879 19.9883 19.9892 19.9908 19.9936 19.9982 20.0063 20.0202 20.0438 20.0821 20.1413 20.2263 20.3364 20.4577 20.5508 20.5358 
19.0822 19.5196 19.7992 19.9551 20.0273 20.0506 20.0499 20.0402 20.0295 20.0208 20.0148 20.011 20.0089 20.0077 20.007 20.0064 20.0059 20.0054 20.0047 20.0039 20.0031 20.0022 20.0012 20.0002 19.9992 19.9982 19.9973 19.9964 19.9956 19.995 19.9944 19.994 19.9937 19.9936 19.9937 19.994 19.9946 19.9956 19.9974 20.0008 20.007 20.0183 20.0385 20.0733 20.1295 20.2145 20.3316 20.4729 20.6066 20.6613 
19.0314 19.4502 19.7341 19.9032 19.9898 20.0253 20.0334 20.0296 20.0224 20.0157 20.0107 20.0074 20.0055 20.0044 20.0037 20.0033 20.0029 20.0026 20.0023 20.0019 20.0014 20.0009 20.0005 20 19.9995 19.999 19.9985 19.9981 19.9977 19.9974 19.9971 19.9969 19.9968 19.9968 19.9968 19.997 19.9973 19.9979 19.999 20.0011 20.0055 20.0143 20.031 20.0615 20.1138 20.1969 20.3183 20.4761 20.6473 20.7705 
19.0044 19.3942 19.6755 19.8537 19.9527 19.9996 20.0166 20.019 20.0157 20.0113 20.0076 20.0051 20.0035 20.0025 20.002 20.0017 20.0014 20.0012 20.001 20.0008 20.0006 20.0004 20.0002 19.9999 19.9997 19.9994 19.9992 19.999 19.9988 19.9987 19.9986 19.9985 19.9985 19.9984 19.9984 19.9985 19.9986 19.9987 19.9992 20.0003 20.0029 20.0091 20.0221 20.0479 20.0949 20.1743 20.297 20.4676 20.6721 20.8607 
19.002 19.3533 19.6249 19.8079 19.917 19.9743 19.9998 20.0084 20.0093 20.0074 20.0052 20.0034 20.0022 20.0015 20.0011 20.0008 20.0007 20.0006 20.0005 20.0004 20.0003 20.0002 20 19.9999 19.9998 19.9997 19.9996 19.9995 19.9994 19.9994 19.9993 19.9993 19.9993 19.9992 19.9992 19.9992 19.9991 19.9989 19.9988 19.9988 19.9998 20.0033 20.0124 20.0328 20.0736 20.1473 20.2684 20.4476 20.6803 20.9298 
19.0241 19.3282 19.5835 19.7669 19.8834 19.9497 19.9833 19.9979 20.0029 20.0037 20.003 20.0021 20.0014 20.0009 20.0006 20.0004 20.0003 20.0003 20.0002 20.0002 20.0001 20.0001 20 20 19.9999 19.9999 19.9998 19.9998 19.9997 19.9997 19.9997 19.9997 19.9997 19.9996 19.9996 19.9994 19.9992 19.9987 19.998 19.9972 19.9965 19.9973 20.0023 20.0169 20.0504 20.1167 20.2332 20.4165 20.6718 20.9759 
19.0702 19.3197 19.5525 19.7317 19.8528 19.9265 19.9672 19.9876 19.9966 20 20.0009 20.0009 20.0007 20.0005 20.0003 20.0002 20.0002 20.0001 20.0001 20.0001 20 20 20 20 20 19.9999 19.9999 19.9999 19.9999 19.9999 19.9999 19.9999 19.9998 19.9998 19.9997 19.9995 19.9991 19.9984 19.9972 19.9954 19.9932 19.9913 19.992 20.0006 20.026 20.0832 20.1923 20.3753 20.6468 20.998 
19.1393 19.328 19.5325 19.7031 19.8258 19.9051 19.952 19.9776 19.9905 19.9964 19.9989 19.9998 20.0001 20.0001 20.0001 20.0001 20.0001 20 20 20 20 20 20 20 20 20 20 20 20 19.9999 19.9999 19.9999 19.9999 19.9998 19.9997 19.9995 19.999 19.998 19.9964 19.9937 19.9899 19.9854 19.982 19.9842 20.001 20.0477 20.1466 20.3247 20.6058 20.9956 
19.2295 19.3528 19.524 19.6818 19.8031 19.8861 19.9381 19.9682 19.9846 19.993 19.997 19.9988 19.9996 19.9999 20 20 20 20 20 20 20 20 20 20 20 20 20 20 20 20 20 20 19.9999 19.9999 19.9997 19.9994 19.9988 19.9977 19.9956 19.9922 19.987 19.9799 19.9724 19.9682 19.9759 20.011 20.0974 20.2662 20.55 20.9686 
19.3387 19.3935 19.5272 19.6684 19.7853 19.8699 19.9256 19.9597 19.9792 19.9898 19.9952 19.9978 19.9991 19.9996 19.9999 19.9999 20 20 20 20 20 20 20 20 20 20 20 20 20 20 20 20 19.9999 19.9999 19.9997 19.9994 19.9987 19.9974 19.995 19.9908 19.9843 19.9749 19.9634 19.953 19.9515 19.9741 20.0457 20.2012 20.4806 20.9178 
19.4642 19.4492 19.5421 19.6632 19.7727 19.8569 19.915 19.9521 19.9743 19.9868 19.9935 19.9969 19.9986 19.9994 19.9997 19.9999 20 20 20 20 20 20 20 20 20 20 20 20 20 20 20 20 19.9999 19.9999 19.9997 19.9993 19.9986 19.9971 19.9944 19.9897 19.982 19.9705 19.9554 19.9389 19.9282 19.9378 19.9929 20.1311 20.3993 20.8443 
19.6029 19.5185 19.5683 19.6662 19.7658 19.8474 19.9065 19.9457 19.97 19.9841 19.9919 19.9961 19.9982 19.9992 19.9996 19.9998 19.9999 20 20 20 20 20 20 20 20 20 20 20 20 20 20 20 19.9999 19.9999 19.9997 19.9993 19.9985 19.9969 19.994 19.9888 19.9801 19.9669 19.9484 19.9264 19.9067 19.903 19.9403 20.0579 20.3082 20.7501 
19.7513 19.5996 19.6051 19.6775 19.7646 19.8417 19.9003 19.9406 19.9664 19.9818 19.9906 19.9953 19.9978 19.999 19.9995 19.9998 19.9999 20 20 20 20 20 20 20 20 20 20 20 20 20 20 20 19.9999 19.9999 19.9997 19.9993 19.9985 19.9968 19.9937 19.9882 19.9788 19.964 19.9428 19.9157 19.8875 19.8706 19.8892 19.9832 20.2096 20.6374 
19.9059 19.6905 19.6516 19.6967 19.7693 19.8399 19.8965 19.9371 19.9637 19.98 19.9895 19.9947 19.9974 19.9988 19.9995 19.9998 19.9999 20 20 20 20 20 20 20 20 20 20 20 20 20 20 20 19.9999 19.9999 19.9997 19.9993 19.9985 19.9968 19.9936 19.9878 19.9779 19.9621 19.9385 19.907 19.8711 19.8414 19.8408 19.909 20.1057 20.509 
20.0628 19.7891 19.7066 19.7233 19.7796 19.842 19.8953 19.935 19.9618 19.9787 19.9887 19.9942 19.9972 19.9987 19.9994 19.9997 19.9999 20 20 20 20 20 20 20 20 20 20 20 20 20 20 20 19.9999 19.9999 19.9997 19.9993 19.9985 19.9968 19.9937 19.9878 19.9777 19.961 19.9357 19.9006 19.8578 19.8161 19.7963 19.837 19.9993 20.3681 
20.2181 19.8929 19.769 19.7568 19.7953 19.848 19.8967 19.9346 19.961 19.9779 19.9881 19.9939 19.997 19.9986 19.9993 19.9997 19.9999 19.9999 20 20 20 20 20 20 20 20 20 20 20 20 20 20 19.9999 19.9999 19.9997 19.9993 19.9986 19.997 19.9939 19.9881 19.9779 19.961 19.9346 19.8967 19.848 19.7953 19.7568 19.769 19.8929 20.2181 
20.3681 19.9993 19.837 19.7963 19.8161 19.8578 19.9006 19.9357 19.961 19.9777 19.9878 19.9937 19.9968 19.9985 19.9993 19.9997 19.9999 19.9999 20 20 20 20 20 20 20 20 20 20 20 20 20 20 20 19.9999 19.9997 19.9994 19.9987 19.9972 19.9942 19.9887 19.9787 19.9618 19.935 19.8953 19.842 19.7796 19.7233 19.7066 19.7891 20.0628 
20.509 20.1057 19.909 19.8408 19.8414 19.8711 19.907 19.9385 19.9621 19.9779 19.9878 19.9936 19.9968 19.9985 19.9993 19.9997 19.9999 19.9999 20 20 20 20 20 20 20 20 20 20 20 20 20 20 20 19.9999 19.9998 19.9995 19.9988 19.9974 19.9947 19.9895 19.98 19.9637 19.9371 19.8965 19.8399 19.7693 19.6967 19.6516 19.6905 19.9059 
20.6374 20.2096 19.9832 19.8892 19.8706 19.8875 19.9157 19.9428 19.964 19.9788 19.9882 19.9937 19.9968 19.9985 19.9993 19.9997 19.9999 19.9999 20 20 20 20 20 20 20 20 20 20 20 20 20 20 20 19.9999 19.9998 19.9995 19.999 19.9978 19.9953 19.9906 19.9818 19.9664 19.9406 19.9003 19.8417 19.7646 19.6775 19.6051 19.5996 19.7513 
20.7501 20.3082 20.0579 19.9403 19.903 19.9067 19.9264 19.9484 19.9669 19.9801 19.9888 19.994 19.9969 19.9985 19.9993 19.9997 19.9999 19.9999 20 20 20 20 20 20 20 20 20 20 20 20 20 20 20 19.9999 19.9998 19.9996 19.9992 19.9982 19.9961 19.9919 19.9841 19.97 19.9457 19.9065 19.8474 19.7658 19.6662 19.5683 19.5185 19.6029 
20.8443 20.3993 20.1311 19.9929 19.9378 19.9282 19.9389 19.9554 19.9705 19.982 19.9897 19.9944 19.9971 19.9986 19.9993 19.9997 19.9999 19.9999 20 20 20 20 20 20 20 20 20 20 20 20 20 20 20 20 19.9999 19.9997 19.9994 19.9986 19.9969 19.9935 19.9868 19.9743 19.9521 19.915 19.8569 19.7728 19.6632 19.5421 19.4492 19.4642 
20.9178 20.4806 20.2012 20.0457 19.9741 19.9515 19.953 19.9634 19.9749 19.9843 19.9908 19.995 19.9974 19.9987 19.9994 19.9997 19.9999 19.9999 20 20 20 20 20 20 20 20 20 20 20 20 20 20 20 20 20 19.9999 19.9996 19.9991 19.9978 19.9952 19.9898 19.9792 19.9597 19.9256 19.8699 19.7853 19.6684 19.5272 19.3935 19.3387 
20.9686 20.55 20.2662 20.0974 20.011 19.976 19.9682 19.9724 19.9799 19.987 19.9922 19.9956 19.9977 19.9988 19.9994 19.9997 19.9998 19.9999 19.9999 19.9999 19.9999 19.9999 20 20 20 20 20 20 20 20 20 20 20 20 20 20 19.9999 19.9996 19.9988 19.997 19.993 19.9847 19.9683 19.9381 19.8861 19.8031 19.6819 19.524 19.3528 19.2295 
20.9956 20.6059 20.3248 20.1466 20.0477 20.001 19.9842 19.982 19.9854 19.9899 19.9937 19.9964 19.998 19.9989 19.9994 19.9997 19.9998 19.9998 19.9998 19.9999 19.9999 19.9999 19.9999 19.9999 19.9999 19.9999 20 20 20 20 20 20.0001 20.0001 20.0001 20.0002 20.0002 20.0002 20.0002 19.9999 19.999 19.9965 19.9906 19.9777 19.9521 19.9052 19.8258 19.7031 19.5325 19.328 19.1393 
20.998 20.6468 20.3753 20.1923 20.0833 20.0261 20.0006 19.9921 19.9913 19.9931 19.9954 19.9971 19.9983 19.999 19.9994 19.9995 19.9996 19.9996 19.9997 19.9997 19.9997 19.9997 19.9997 19.9998 19.9998 19.9999 19.9999 20 20 20.0001 20.0001 20.0002 20.0002 20.0003 20.0004 20.0005 20.0006 20.0009 20.0011 20.0011 20.0002 19.9968 19.9877 19.9673 19.9266 19.8529 19.7318 19.5525 19.3197 19.0702 
20.9759 20.6719 20.4166 20.2333 20.1168 20.0505 20.017 20.0023 19.9973 19.9964 19.997 19.9979 19.9985 19.9989 19.9991 19.9992 19.9992 19.9993 19.9993 19.9993 19.9993 19.9994 19.9994 19.9995 19.9996 19.9997 19.9998 19.9999 20 20.0002 20.0003 20.0004 20.0005 20.0006 20.0007 20.0009 20.0013 20.0017 20.0025 20.0034 20.004 20.0032 19.9982 19.9836 19.95 19.8836 19.767 19.5836 19.3282 19.0241 
20.9298 20.6804 20.4477 20.2686 20.1475 20.0738 20.033 20.0125 20.0033 19.9997 19.9986 19.9984 19.9984 19.9985 19.9985 19.9985 19.9984 19.9984 19.9985 19.9985 19.9986 19.9987 19.9988 19.999 19.9992 19.9994 19.9997 19.9999 20.0002 20.0004 20.0006 20.0009 20.0011 20.0013 20.0015 20.0018 20.0023 20.003 20.0042 20.006 20.0082 20.01 20.0091 20.0004 19.9748 19.9174 19.8082 19.625 19.3533 19.002 
20.8607 20.6722 20.4679 20.2973 20.1746 20.0952 20.0481 20.0222 20.0089 20.0026 19.9997 19.9983 19.9977 19.9973 19.9971 19.9969 19.9968 19.9968 19.9968 19.9969 19.9971 19.9974 19.9977 19.9981 19.9985 19.999 19.9995 20 20.0005 20.0009 20.0014 20.0019 20.0023 20.0027 20.0031 20.0035 20.0041 20.0051 20.0067 20.0093 20.0129 20.0172 20.0203 20.0177 20.0005 19.9534 19.8542 19.6758 19.3944 19.0044 
20.7705 20.6475 20.4766 20.3188 20.1975 20.1142 20.0618 20.0309 20.0138 20.0046 19.9998 19.9972 19.9957 19.9948 19.9942 19.9939 19.9936 19.9936 19.9937 19.994 19.9944 19.995 19.9956 19.9964 19.9973 19.9982 19.9992 20.0002 20.0012 20.0022 20.0031 20.004 20.0047 20.0054 20.006 20.0067 20.0075 20.0087 20.0106 20.0138 20.0186 20.0251 20.032 20.0354 20.0269 19.991 19.904 19.7346 19.4504 19.0314 
20.6613 20.6069 20.4735 20.3324 20.2152 20.13 20.0733 20.038 20.0171 20.005 19.9981 19.994 19.9915 19.9898 19.9888 19.9881 19.9878 19.9878 19.9881 19.9888 19.9897 19.9908 19.9922 19.9938 19.9955 19.9973 19.9992 20.0011 20.003 20.0048 20.0066 20.0081 20.0095 20.0106 20.0116 20.0125 20.0135 20.0148 20.0169 20.0204 20.026 20.0342 20.0443 20.0532 20.0532 20.0291 19.9563 19.7999 19.5198 19.0822 
20.5358 20.5511 20.4584 20.3372 20.2269 20.1414 20.0815 20.0422 20.0174 20.0022 19.9929 19.987 19.9831 19.9806 19.9789 19.978 19.9776 19.9779 19.9787 19.9801 19.9819 19.9842 19.9869 19.9899 19.9932 19.9966 20.0001 20.0036 20.007 20.0103 20.0133 20.016 20.0183 20.0201 20.0216 20.0228 20.0238 20.025 20.0268 20.0301 20.0359 20.0451 20.0575 20.071 20.0788 20.0666 20.0093 19.8696 19.6008 19.1557 
20.3971 20.4812 20.4309 20.3319 20.2306 20.1465 20.0842 20.041 20.0124 19.9937 19.9815 19.9734 19.968 19.9643 19.9621 19.961 19.961 19.962 19.9639 19.9668 19.9705 19.9749 19.9799 19.9854 19.9913 19.9974 20.0035 20.0096 20.0154 20.0209 20.0258 20.0301 20.0337 20.0365 20.0386 20.0398 20.0405 20.0411 20.042 20.0443 20.0491 20.0579 20.0713 20.0879 20.1023 20.1013 20.0604 19.941 19.6906 19.2499 
20.2487 20.3978 20.3897 20.3143 20.2235 20.1418 20.0776 20.0307 19.998 19.9756 19.9602 19.9496 19.9424 19.9378 19.9352 19.9346 19.9357 19.9384 19.9426 19.9483 19.9553 19.9633 19.9723 19.9819 19.992 20.0023 20.0126 20.0225 20.0319 20.0404 20.048 20.0545 20.0596 20.0632 20.0655 20.0663 20.0659 20.0647 20.0635 20.0632 20.0654 20.0719 20.0839 20.1015 20.1204 20.1293 20.1053 20.0095 19.7854 19.3626 
20.0941 20.3011 20.3323 20.2799 20.1999 20.1212 20.0555 20.0052 19.9683 19.942 19.9234 19.9106 19.9021 19.8972 19.8955 19.8967 19.9005 19.9068 19.9155 19.9262 19.9388 19.9529 19.9681 19.9841 20.0006 20.017 20.033 20.0481 20.0621 20.0746 20.0852 20.0938 20.1 20.1038 20.1052 20.1042 20.1011 20.0963 20.0906 20.0854 20.0823 20.0835 20.0912 20.1064 20.1269 20.1438 20.1367 20.0682 19.8797 19.491 
19.9372 20.1897 20.2534 20.221 20.1509 20.0753 20.0087 19.9554 19.9151 19.8857 19.865 19.8513 19.8434 19.8405 19.8421 19.8478 19.8575 19.8708 19.8872 19.9065 19.928 19.9514 19.9759 20.001 20.0261 20.0506 20.0738 20.0952 20.1142 20.1304 20.1435 20.153 20.1587 20.1606 20.1587 20.153 20.1439 20.1321 20.1186 20.1047 20.0925 20.0846 20.0839 20.0927 20.1109 20.1329 20.1422 20.1056 19.965 19.6319 
19.7819 20.0598 20.1439 20.1253 20.063 19.9907 19.9244 19.8702 19.8289 19.7994 19.7799 19.7692 19.766 19.7696 19.7794 19.795 19.8157 19.841 19.8703 19.9027 19.9376 19.974 20.0111 20.0478 20.0834 20.117 20.1476 20.1747 20.1974 20.2152 20.2278 20.2348 20.236 20.2314 20.2212 20.2058 20.1856 20.1616 20.1349 20.1074 20.0812 20.0595 20.0457 20.0435 20.055 20.0783 20.1033 20.1039 20.0277 19.7819 
19.6319 19.904 19.9892 19.9752 19.9182 19.8507 19.7887 19.7388 19.7026 19.6797 19.6688 19.6687 19.6783 19.6967 19.723 19.7564 19.7958 19.8404 19.8889 19.9402 19.9929 20.0458 20.0976 20.147 20.1927 20.2337 20.269 20.2976 20.319 20.3324 20.3377 20.3346 20.3234 20.3042 20.2776 20.2442 20.2052 20.1617 20.1154 20.0683 20.023 19.9828 19.9518 19.9345 19.9351 19.9559 19.9944 20.0367 20.0459 19.9372 
19.491 19.7087 19.7689 19.7492 19.6973 19.6402 19.5916 19.557 19.5381 19.5347 19.5456 19.5696 19.6052 19.6513 19.7062 19.7685 19.8366 19.9088 19.9832 20.058 20.1315 20.2017 20.2669 20.3255 20.3762 20.4175 20.4486 20.4687 20.4772 20.4739 20.459 20.4328 20.3959 20.3494 20.2942 20.2319 20.1641 20.0928 20.0199 19.9481 19.8801 19.8195 19.7703 19.7371 19.7253 19.7403 19.7874 19.8696 19.9818 20.0941 
19.3626 19.4502 19.4575 19.4271 19.3879 19.3558 19.3386 19.3396 19.3591 19.3965 19.4503 19.5185 19.5992 19.6901 19.7887 19.8927 19.9993 20.106 20.2101 20.309 20.4003 20.4817 20.5513 20.6073 20.6484 20.6735 20.682 20.6737 20.6488 20.608 20.5521 20.4827 20.4014 20.3103 20.2115 20.1075 20.0011 19.8948 19.7915 19.6942 19.6058 19.5296 19.4688 19.4272 19.409 19.4196 19.4674 19.5688 19.7632 20.2487 
19.2499 19.0822 19.0314 19.0044 19.002 19.0241 19.0702 19.1393 19.2295 19.3387 19.4642 19.6029 19.7513 19.9059 20.0628 20.2181 20.3681 20.509 20.6374 20.7501 20.8443 20.9178 20.9686 20.9956 20.998 20.9759 20.9298 20.8607 20.7705 20.6613 20.5358 20.3971 20.2487 20.0941 19.9372 19.7819 19.6319 19.491 19.3626 19.2499 19.1557 19.0822 19.0314 19.0044 19.002 19.0241 19.0702 19.1393 19.2295 20.3971 
