# vtk DataFile Version 3.0
Temperature distribution on a 2D grid
ASCII

DATASET STRUCTURED_POINTS
DIMENSIONS 50 50 1
ORIGIN 0.0 0.0 0.0
SPACING 0.01 0.01 1.0

POINT_DATA 2500
SCALARS temperature double
LOOKUP_TABLE default
19.691 20.454 20.5878 20.7071 20.809 20.891 20.9511 20.9877 21 20.9877 20.9511 20.891 20.809 20.7071 20.5878 20.454 20.309 20.1564 20 19.8436 19.691 19.546 19.4122 19.2929 19.191 19.109 19.0489 19.0123 19 19.0123 19.0489 19.109 19.191 19.2929 19.4122 19.546 19.691 19.8436 20 20.1564 20.309 20.454 20.5878 20.7071 20.809 20.891 20.9511 20.9877 21 20.9511 
19.8436 20.1713 20.3489 20.4704 20.5528 20.6037 20.6275 20.6272 20.6057 20.5654 20.5089 20.4384 20.3565 20.2654 20.1678 20.066 19.9626 19.8602 19.7614 19.6684 19.5837 19.5092 19.4468 19.398 19.3641 19.3458 19.3436 19.3576 19.3874 19.4323 19.4912 19.5626 19.6448 19.7358 19.8334 19.935 20.0383 20.1406 20.2392 20.3315 20.4148 20.4868 20.5454 20.5895 20.6197 20.6394 20.6566 20.6861 20.7525 20.891 
20 20.0438 20.1361 20.2238 20.2888 20.3273 20.3406 20.3319 20.3052 20.2641 20.2122 20.1525 20.0877 20.0202 19.9519 19.8849 19.8208 19.7613 19.7077 19.6614 19.6235 19.595 19.5764 19.5682 19.5707 19.5838 19.6071 19.6401 19.6819 19.7316 19.7879 19.8495 19.9148 19.9823 20.0503 20.1171 20.1811 20.2405 20.2935 20.3385 20.3737 20.3973 20.4084 20.407 20.396 20.3829 20.3832 20.4238 20.5462 20.809 
20.1564 20.0101 20.0005 20.0391 20.0835 20.1156 20.1296 20.1258 20.1071 20.0772 20.0397 19.9979 19.9541 19.9107 19.8691 19.8309 19.7969 19.7681 19.7452 19.7286 19.7189 19.7161 19.7203 19.7314 19.7491 19.7731 19.8026 19.8369 19.8753 19.9168 19.9603 20.0049 20.0494 20.0928 20.134 20.172 20.2059 20.2345 20.2569 20.2717 20.2776 20.2733 20.258 20.2321 20.1996 20.1701 20.1634 20.2134 20.3718 20.7071 
20.309 20.035 19.9385 19.9286 19.9512 19.9777 19.9955 20.0006 19.9939 19.9782 19.9565 19.9319 19.9066 19.8826 19.8611 19.843 19.8289 19.8193 19.8143 19.8141 19.8185 19.8274 19.8406 19.8578 19.8784 19.9021 19.9282 19.956 19.985 20.0143 20.0433 20.0713 20.0976 20.1216 20.1428 20.1606 20.1746 20.1842 20.1887 20.187 20.178 20.1602 20.1326 20.0955 20.0524 20.0138 20.0008 20.051 20.2214 20.5878 
20.454 20.0955 19.9322 19.8802 19.8818 19.9021 19.9227 19.936 19.9404 19.9372 19.9288 19.9177 19.9061 19.8955 19.887 19.8813 19.8786 19.8792 19.8829 19.8897 19.8993 19.9115 19.9259 19.9421 19.9598 19.9784 19.9976 20.0169 20.0357 20.0537 20.0704 20.0854 20.0984 20.1091 20.1174 20.123 20.1257 20.1253 20.1212 20.1126 20.098 20.0758 20.0443 20.0032 19.955 19.9094 19.8873 19.927 20.0885 20.454 
20.5878 20.1754 19.9628 19.8759 19.8579 19.8706 19.8919 19.9107 19.9232 19.9293 19.9304 19.9286 19.9258 19.9234 19.9222 19.9229 19.9256 19.9303 19.937 19.9454 19.9553 19.9664 19.9783 19.9908 20.0035 20.0162 20.0284 20.04 20.0505 20.0599 20.0678 20.074 20.0786 20.0814 20.0825 20.0818 20.0794 20.075 20.0683 20.0584 20.0436 20.022 19.9912 19.9496 19.8987 19.8462 19.8115 19.8319 19.9685 20.309 
20.7071 20.2632 20.0148 19.8992 19.8629 19.8667 19.8861 19.9075 19.9249 19.9368 19.9439 19.9478 19.95 19.9519 19.9541 19.9573 19.9617 19.9672 19.9737 19.9811 19.989 19.9973 20.0057 20.014 20.022 20.0294 20.0361 20.0419 20.0467 20.0504 20.0528 20.054 20.054 20.0528 20.0506 20.0476 20.0438 20.039 20.0329 20.0246 20.0123 19.9936 19.9654 19.925 19.8722 19.8125 19.7626 19.7577 19.8585 20.1564 
20.809 20.3508 20.0773 19.938 19.8843 19.8781 19.8933 19.9144 19.9339 19.9489 19.9594 19.9663 19.971 19.9746 19.9779 19.9815 19.9856 19.9902 19.9953 20.0006 20.0061 20.0115 20.0166 20.0214 20.0257 20.0293 20.0322 20.0344 20.0356 20.036 20.0356 20.0343 20.0323 20.0297 20.0267 20.0235 20.0202 20.0167 20.0127 20.0071 19.9982 19.9832 19.9583 19.9199 19.8656 19.7987 19.7325 19.699 19.7571 20 
20.891 20.4326 20.1427 19.9838 19.9139 19.8968 19.9059 19.9247 19.9441 19.9602 19.9721 19.9803 19.9859 19.9899 19.9932 19.9962 19.9993 20.0025 20.0058 20.0092 20.0124 20.0154 20.0181 20.0204 20.0222 20.0235 20.0242 20.0242 20.0237 20.0226 20.021 20.0189 20.0164 20.0138 20.0111 20.0087 20.0066 20.0049 20.0032 20.0006 19.9952 19.9839 19.9626 19.9263 19.8713 19.7977 19.7156 19.6526 19.6642 19.8436 
20.9511 20.5048 20.206 20.0316 19.9467 19.9182 19.92 19.9349 19.9527 19.9685 19.9806 19.9892 19.9949 19.9987 20.0015 20.0037 20.0057 20.0076 20.0094 20.0112 20.0128 20.0142 20.0153 20.016 20.0164 20.0164 20.0159 20.0151 20.0139 20.0123 20.0105 20.0084 20.0063 20.0041 20.0023 20.0009 20.0002 20.0002 20.0006 20.0005 19.9982 19.9904 19.9725 19.9389 19.8839 19.805 19.7083 19.6165 19.5806 19.691 
20.9877 20.5645 20.2643 20.0782 19.98 19.9401 19.9339 19.9438 19.959 19.9736 19.9853 19.9937 19.9992 20.0027 20.005 20.0064 20.0075 20.0084 20.0092 20.0099 20.0105 20.0109 20.0111 20.011 20.0107 20.0101 20.0093 20.0083 20.007 20.0055 20.0039 20.0023 20.0007 19.9992 19.9981 19.9977 19.998 19.9993 20.0014 20.0034 20.0037 19.9991 19.9848 19.9542 19.9002 19.8178 19.7087 19.5903 19.5075 19.546 
21 20.6102 20.3156 20.122 20.0123 19.9616 19.9472 19.9516 19.9634 19.9763 19.9872 19.9952 20.0005 20.0037 20.0055 20.0065 20.007 20.0073 20.0074 20.0075 20.0075 20.0074 20.0072 20.0068 20.0063 20.0056 20.0048 20.0038 20.0028 20.0016 20.0004 19.9993 19.9982 19.9973 19.9968 19.997 19.9981 20.0003 20.0035 20.0071 20.0096 20.0079 19.9971 19.9701 19.9185 19.8344 19.7157 19.5737 19.4463 19.4122 
20.9877 20.6405 20.3584 20.1619 20.0431 19.9826 19.9599 19.9585 19.9667 19.9775 19.9873 19.9948 19.9999 20.0029 20.0046 20.0053 20.0055 20.0055 20.0053 20.0051 20.0048 20.0045 20.0042 20.0037 20.0032 20.0027 20.002 20.0013 20.0006 19.9998 19.999 19.9982 19.9975 19.997 19.9969 19.9974 19.9989 20.0016 20.0056 20.0104 20.0148 20.0158 20.0086 19.9857 19.9376 19.8542 19.7289 19.5671 19.3984 19.2929 
20.9511 20.6547 20.3919 20.197 20.0718 20.0028 19.9724 19.9652 19.9695 19.978 19.9866 19.9936 19.9985 20.0015 20.003 20.0037 20.0038 20.0037 20.0034 20.0031 20.0028 20.0025 20.0022 20.0018 20.0014 20.001 20.0006 20.0001 19.9997 19.9992 19.9986 19.9981 19.9977 19.9974 19.9975 19.9982 19.9998 20.0027 20.0071 20.0128 20.0187 20.0222 20.0187 20.0006 19.9573 19.8765 19.748 19.5706 19.365 19.191 
20.891 20.6527 20.4154 20.2267 20.0982 20.0223 19.9849 19.972 19.9724 19.9784 19.9858 19.9922 19.9969 19.9998 20.0015 20.0022 20.0024 20.0023 20.002 20.0017 20.0015 20.0012 20.001 20.0007 20.0005 20.0003 20 19.9998 19.9995 19.9992 19.9988 19.9985 19.9982 19.998 19.9981 19.9988 20.0003 20.0032 20.0078 20.0141 20.0213 20.0272 20.0275 20.0145 19.977 19.9011 19.7727 19.5842 19.3471 19.109 
20.809 20.6345 20.4285 20.2506 20.1218 20.0409 19.9974 19.9792 19.9756 19.9792 19.9851 19.9909 19.9954 19.9984 20.0001 20.001 20.0013 20.0012 20.0011 20.0009 20.0007 20.0005 20.0004 20.0002 20.0001 20 19.9999 19.9998 19.9997 19.9995 19.9992 19.999 19.9987 19.9985 19.9985 19.999 20.0004 20.0032 20.0078 20.0144 20.0227 20.0309 20.0349 20.0273 19.9968 19.9277 19.8025 19.6077 19.345 19.0489 
20.7071 20.6006 20.4309 20.2682 20.1423 20.0583 20.0098 19.9867 19.9794 19.9805 19.9849 19.9899 19.9941 19.9971 19.999 20 20.0004 20.0005 20.0005 20.0004 20.0003 20.0002 20.0001 20.0001 20.0001 20 20 20 19.9999 19.9998 19.9996 19.9994 19.9991 19.9988 19.9987 19.999 20.0002 20.0026 20.0071 20.0139 20.0231 20.0333 20.0409 20.0391 20.0162 19.9556 19.8369 19.6407 19.359 19.0123 
20.5878 20.5519 20.4227 20.2792 20.1592 20.0742 20.0219 19.9946 19.9838 19.9823 19.9852 19.9893 19.9932 19.9962 19.9982 19.9993 19.9999 20.0001 20.0001 20.0001 20.0001 20 20 20.0001 20.0001 20.0001 20.0001 20.0001 20.0001 20 19.9999 19.9996 19.9993 19.999 19.9987 19.9988 19.9996 20.0018 20.006 20.0129 20.0227 20.0346 20.0457 20.0496 20.035 19.9845 19.8752 19.6824 19.3888 19 
20.454 20.4896 20.4041 20.2833 20.1722 20.0883 20.0336 20.0027 19.9886 19.9846 19.9859 19.9892 19.9926 19.9955 19.9975 19.9988 19.9995 19.9998 19.9999 20 20 20 20 20.0001 20.0001 20.0002 20.0002 20.0003 20.0002 20.0002 20 19.9998 19.9994 19.999 19.9986 19.9984 19.9989 20.0007 20.0045 20.0113 20.0216 20.035 20.0493 20.0589 20.0528 20.0136 19.9165 19.7319 19.4335 19.0123 
20.309 20.4153 20.3755 20.2804 20.181 20.1003 20.0444 20.0108 19.9938 19.9875 19.9871 19.9893 19.9923 19.995 19.997 19.9984 19.9992 19.9996 19.9998 19.9999 20 20 20 20.0001 20.0002 20.0002 20.0003 20.0003 20.0003 20.0002 20.0001 19.9998 19.9994 19.9989 19.9984 19.998 19.9982 19.9995 20.0029 20.0094 20.0198 20.0344 20.0516 20.0666 20.0694 20.0424 19.9598 19.7881 19.4922 19.0489 
20.1564 20.3307 20.3377 20.2706 20.1854 20.1099 20.0542 20.0187 19.9992 19.9906 19.9886 19.9898 19.9923 19.9947 19.9967 19.9981 19.9989 19.9995 19.9997 19.9999 19.9999 20 20.0001 20.0001 20.0002 20.0002 20.0003 20.0003 20.0003 20.0002 20.0001 19.9998 19.9994 19.9988 19.9981 19.9976 19.9974 19.9983 20.0012 20.0073 20.0176 20.033 20.0526 20.0727 20.0842 20.0702 20.0042 19.8494 19.5635 19.109 
20 20.238 20.2916 20.2542 20.1852 20.1167 20.0627 20.0261 20.0046 19.994 19.9904 19.9906 19.9924 19.9945 19.9964 19.9978 19.9987 19.9993 19.9996 19.9998 19.9999 20 20.0001 20.0001 20.0002 20.0002 20.0003 20.0003 20.0003 20.0002 20 19.9998 19.9993 19.9987 19.998 19.9972 19.9967 19.9972 19.9995 20.0049 20.015 20.0308 20.0524 20.077 20.0969 20.0963 20.0484 19.9144 19.6454 19.191 
19.8436 20.1395 20.2383 20.2315 20.1804 20.1207 20.0697 20.0329 20.0099 19.9976 19.9925 19.9916 19.9927 19.9945 19.9962 19.9976 19.9986 19.9992 19.9996 19.9998 19.9999 20 20 20.0001 20.0001 20.0002 20.0002 20.0002 20.0002 20.0002 20 19.9997 19.9993 19.9987 19.9978 19.9969 19.9961 19.9961 19.9978 20.0025 20.012 20.0278 20.0509 20.0795 20.1073 20.12 20.0915 19.9816 19.7361 19.2929 
19.691 20.0375 20.1791 20.2031 20.1712 20.1218 20.0749 20.0389 20.015 20.0013 19.9948 19.9929 19.9933 19.9946 19.9962 19.9975 19.9984 19.9991 19.9995 19.9998 19.9999 20 20 20.0001 20.0001 20.0002 20.0002 20.0002 20.0002 20.0001 20 19.9997 19.9993 19.9987 19.9978 19.9967 19.9956 19.9952 19.9961 20 20.0087 20.0242 20.0481 20.08 20.1151 20.1407 20.1323 20.0492 19.8333 19.4122 
19.546 19.9346 20.1155 20.1697 20.1578 20.1198 20.0783 20.0439 20.0197 20.0049 19.9972 19.9942 19.9939 19.9949 19.9962 19.9974 19.9984 19.999 19.9995 19.9997 19.9999 20 20 20.0001 20.0001 20.0001 20.0001 20.0001 20.0001 20.0001 20 19.9997 19.9993 19.9987 19.9977 19.9965 19.9952 19.9943 19.9946 19.9976 20.0052 20.02 20.0442 20.0785 20.12 20.158 20.1699 20.1156 19.9346 19.546 
19.4122 19.8333 20.0491 20.1322 20.1405 20.1148 20.0797 20.0478 20.0239 20.0083 19.9997 19.9958 19.9948 19.9952 19.9963 19.9974 19.9983 19.999 19.9994 19.9997 19.9999 20 20 20.0001 20.0001 20.0001 20.0001 20.0001 20.0001 20.0001 20 19.9998 19.9994 19.9987 19.9978 19.9965 19.995 19.9936 19.9932 19.9952 20.0016 20.0153 20.0391 20.0752 20.122 20.1714 20.2032 20.1792 20.0375 19.691 
19.2929 19.7361 19.9815 20.0913 20.1198 20.1071 20.0792 20.0506 20.0275 20.0116 20.0021 19.9974 19.9957 19.9957 19.9965 19.9974 19.9983 19.999 19.9994 19.9997 19.9999 20 20 20.0001 20.0001 20.0001 20.0001 20.0001 20.0001 20 20 19.9998 19.9994 19.9988 19.9979 19.9966 19.9948 19.9931 19.992 19.9929 19.9979 20.0102 20.0332 20.0699 20.121 20.1806 20.2316 20.2384 20.1395 19.8436 
19.191 19.6454 19.9144 20.0483 20.0961 20.0967 20.0768 20.0521 20.0305 20.0146 20.0046 19.9991 19.9968 19.9963 19.9968 19.9975 19.9983 19.9989 19.9994 19.9997 19.9999 20 20 20.0001 20.0001 20.0001 20.0001 20 20 20 19.9999 19.9998 19.9995 19.999 19.9981 19.9967 19.9948 19.9927 19.991 19.9908 19.9944 20.0049 20.0264 20.063 20.117 20.1854 20.2543 20.2917 20.2381 20 
19.109 19.5634 19.8493 20.0041 20.0701 20.084 20.0725 20.0524 20.0327 20.0173 20.0069 20.0009 19.9979 19.997 19.9971 19.9977 19.9984 19.9989 19.9994 19.9997 19.9999 20 20 20 20 20 20 20 20 20 19.9999 19.9998 19.9996 19.9992 19.9983 19.9969 19.995 19.9926 19.9902 19.9889 19.991 19.9995 20.019 20.0545 20.1101 20.1856 20.2708 20.3378 20.3308 20.1564 
19.0489 19.4922 19.788 19.9598 20.0423 20.0692 20.0664 20.0514 20.0341 20.0195 20.009 20.0025 19.9991 19.9977 19.9975 19.9979 19.9984 19.9989 19.9993 19.9996 19.9998 19.9999 19.9999 19.9999 19.9999 19.9999 19.9999 19.9999 19.9999 19.9999 19.9999 19.9999 19.9998 19.9994 19.9986 19.9973 19.9953 19.9927 19.9897 19.9874 19.9878 19.9942 20.0112 20.0448 20.1006 20.1812 20.2805 20.3756 20.4153 20.309 
19.0123 19.4335 19.7319 19.9164 20.0135 20.0527 20.0587 20.0491 20.0347 20.0212 20.0109 20.0041 20.0002 19.9984 19.9978 19.998 19.9984 19.9988 19.9991 19.9994 19.9996 19.9997 19.9998 19.9998 19.9998 19.9998 19.9998 19.9998 19.9999 19.9999 20 20 20 19.9997 19.9991 19.9979 19.9959 19.9931 19.9896 19.9864 19.9851 19.989 20.0031 20.0339 20.0887 20.1725 20.2835 20.4042 20.4897 20.454 
19 19.3887 19.6823 19.8751 19.9843 20.0348 20.0494 20.0454 20.0343 20.0223 20.0124 20.0054 20.0012 19.9989 19.9981 19.998 19.9982 19.9985 19.9989 19.9991 19.9993 19.9994 19.9995 19.9996 19.9996 19.9997 19.9998 19.9998 19.9999 20 20.0002 20.0003 20.0004 20.0002 19.9997 19.9986 19.9967 19.9938 19.9899 19.9857 19.9828 19.9843 19.9951 20.0223 20.0746 20.1595 20.2794 20.4228 20.552 20.5878 
19.0123 19.359 19.6405 19.8367 19.9553 20.0158 20.0387 20.0405 20.0327 20.0225 20.0132 20.0063 20.0018 19.9993 19.9981 19.9977 19.9978 19.9981 19.9984 19.9987 19.9989 19.9991 19.9993 19.9994 19.9995 19.9997 19.9998 20 20.0002 20.0004 20.0006 20.0008 20.001 20.001 20.0006 19.9997 19.9978 19.9948 19.9906 19.9856 19.9811 19.98 19.9872 20.0102 20.0586 20.1425 20.2684 20.431 20.6007 20.7071 
19.0489 19.3449 19.6074 19.8021 19.9271 19.9961 20.0266 20.034 20.03 20.0217 20.0133 20.0066 20.002 19.9992 19.9978 19.9973 19.9972 19.9975 19.9978 19.9982 19.9985 19.9988 19.9991 19.9994 19.9996 19.9999 20.0002 20.0004 20.0007 20.001 20.0014 20.0017 20.002 20.0021 20.0018 20.001 19.9993 19.9963 19.9917 19.9859 19.9799 19.9762 19.9796 19.9977 20.0411 20.122 20.2507 20.4285 20.6345 20.809 
19.109 19.3468 19.5836 19.7719 19.9002 19.9759 20.0132 20.0261 20.0258 20.0197 20.0125 20.0061 20.0016 19.9987 19.9971 19.9965 19.9965 19.9968 19.9972 19.9977 19.9983 19.9988 19.9992 19.9997 20.0002 20.0006 20.0011 20.0015 20.0019 20.0023 20.0027 20.0031 20.0034 20.0036 20.0034 20.0027 20.001 19.9979 19.9931 19.9866 19.979 19.9728 19.9722 19.985 20.0223 20.0981 20.2266 20.4153 20.6526 20.891 
19.191 19.3646 19.5697 19.7467 19.8749 19.9553 19.9985 20.0165 20.0199 20.0163 20.0104 20.0048 20.0005 19.9977 19.9962 19.9957 19.9958 19.9963 19.997 19.9978 19.9986 19.9994 20.0001 20.0009 20.0016 20.0023 20.0029 20.0034 20.0039 20.0043 20.0047 20.0051 20.0053 20.0054 20.0052 20.0044 20.0027 19.9995 19.9944 19.9871 19.9782 19.9694 19.9649 19.972 20.0022 20.0712 20.1964 20.3915 20.6545 20.9511 
19.2929 19.3976 19.5657 19.7268 19.8516 19.9347 19.9825 20.0052 20.0124 20.0114 20.0072 20.0026 19.9989 19.9965 19.9953 19.9952 19.9956 19.9965 19.9976 19.9988 20 20.0012 20.0024 20.0034 20.0043 20.0052 20.0059 20.0064 20.0069 20.0072 20.0074 20.0075 20.0075 20.0073 20.0069 20.0058 20.0038 20.0004 19.9949 19.987 19.9768 19.9656 19.9571 19.9584 19.981 20.0416 20.1607 20.3575 20.64 20.9877 
19.4122 19.4451 19.5716 19.7127 19.8307 19.9142 19.9656 19.9925 20.0034 20.0054 20.0033 20.0001 19.9975 19.9959 19.9954 19.9958 19.9969 19.9984 20.0001 20.0018 20.0035 20.0051 20.0066 20.0078 20.0089 20.0097 20.0103 20.0107 20.0108 20.0107 20.0104 20.01 20.0094 20.0086 20.0075 20.006 20.0036 19.9997 19.9938 19.9853 19.9739 19.9606 19.9485 19.944 19.9586 20.0096 20.1199 20.3141 20.6094 21 
19.546 19.506 19.5875 19.7047 19.8129 19.8948 19.9485 19.9792 19.9939 19.9991 19.9996 19.9985 19.9974 19.9971 19.9977 19.9991 20.001 20.0033 20.0057 20.008 20.0101 20.0119 20.0135 20.0147 20.0155 20.016 20.016 20.0157 20.015 20.014 20.0127 20.0112 20.0096 20.0078 20.0058 20.0034 20.0004 19.996 19.9897 19.9806 19.9684 19.9535 19.9382 19.9285 19.9352 19.9758 20.075 20.2622 20.5635 20.9877 
19.691 19.579 19.6134 19.7038 19.7996 19.878 19.933 19.9671 19.9857 19.9947 19.9983 19.9998 20.0008 20.0023 20.0043 20.0069 20.0099 20.0129 20.0158 20.0184 20.0206 20.0222 20.0233 20.0239 20.0238 20.0231 20.0218 20.0201 20.0178 20.0152 20.0123 20.0092 20.006 20.0028 19.9996 19.9962 19.9923 19.9875 19.981 19.9719 19.9594 19.9436 19.9262 19.9121 19.9113 19.9413 20.0277 20.2036 20.5036 20.9511 
19.8436 19.6629 19.6501 19.7121 19.7936 19.867 19.9224 19.9596 19.9823 19.9954 20.0027 20.0074 20.011 20.0145 20.0181 20.0219 20.0255 20.0289 20.0317 20.0339 20.0352 20.0357 20.0353 20.034 20.0319 20.029 20.0253 20.0211 20.0163 20.0113 20.006 20.0007 19.9955 19.9906 19.986 19.9817 19.9774 19.9726 19.9665 19.9582 19.9466 19.9312 19.9131 19.896 19.8891 19.9086 19.9807 20.1412 20.4322 20.891 
20 19.7574 19.6994 19.7329 19.7992 19.8668 19.9221 19.9621 19.9891 20.0065 20.0178 20.0258 20.032 20.0373 20.042 20.0462 20.0496 20.052 20.0534 20.0535 20.0524 20.05 20.0464 20.0416 20.0358 20.0291 20.0217 20.0137 20.0055 19.9971 19.9889 19.9811 19.974 19.9676 19.9622 19.9576 19.9538 19.9502 19.946 19.9401 19.9312 19.9184 19.9018 19.884 19.8726 19.8825 19.9389 20.0796 20.3526 20.809 
20.1564 19.8624 19.7648 19.7721 19.8238 19.8853 19.94 19.9826 20.0134 20.0348 20.0496 20.0602 20.068 20.0738 20.078 20.0806 20.0815 20.0807 20.0781 20.0736 20.0674 20.0596 20.0502 20.0397 20.0281 20.0159 20.0032 19.9905 19.9781 19.9662 19.9553 19.9455 19.9373 19.9308 19.9261 19.9233 19.9221 19.9221 19.9223 19.9215 19.9182 19.9108 19.8987 19.8832 19.8698 19.8712 19.9109 20.0264 20.2705 20.7071 
20.309 19.9798 19.8523 19.8386 19.8778 19.9335 19.987 20.031 20.0641 20.0877 20.104 20.1147 20.1213 20.1245 20.1246 20.122 20.1166 20.1085 20.0979 20.0851 20.0701 20.0535 20.0355 20.0166 19.9974 19.9782 19.9595 19.9419 19.9257 19.9113 19.8993 19.8898 19.8831 19.8796 19.8791 19.8817 19.8871 19.8945 19.9031 19.9113 19.9174 19.9193 19.9155 19.9057 19.8932 19.8878 19.9092 19.993 20.194 20.5878 
20.454 20.113 19.9709 19.9445 19.9745 20.0246 20.0751 20.1174 20.1491 20.1706 20.1835 20.1892 20.189 20.1837 20.1738 20.1598 20.1421 20.1211 20.0972 20.071 20.043 20.0141 19.9848 19.9558 19.928 19.9019 19.8782 19.8576 19.8404 19.8273 19.8184 19.8141 19.8145 19.8197 19.8294 19.8435 19.8612 19.8819 19.9041 19.9264 19.9464 19.9618 19.97 19.9694 19.9609 19.9502 19.9519 19.996 20.1352 20.454 
20.5878 20.2681 20.1327 20.1044 20.1285 20.1713 20.2139 20.248 20.2705 20.2816 20.2821 20.2736 20.2573 20.2342 20.2053 20.1714 20.1335 20.0924 20.0491 20.0047 19.9601 19.9166 19.8752 19.8368 19.8024 19.7729 19.749 19.7313 19.7202 19.716 19.7188 19.7287 19.7453 19.7684 19.7973 19.8313 19.8693 19.9101 19.9522 19.9934 20.0314 20.0633 20.086 20.0967 20.0939 20.0791 20.06 20.0565 20.1113 20.309 
20.7071 20.4545 20.3519 20.3321 20.3504 20.3793 20.4038 20.4171 20.4168 20.403 20.3769 20.34 20.2939 20.2403 20.1807 20.1167 20.0499 19.982 19.9146 19.8493 19.7878 19.7315 19.6818 19.64 19.607 19.5837 19.5706 19.5681 19.5763 19.5949 19.6235 19.6615 19.7078 19.7615 19.8211 19.8852 19.9521 20.0198 20.0864 20.1494 20.2062 20.2538 20.2891 20.3088 20.3099 20.2905 20.2509 20.197 20.1479 20.1564 
20.809 20.6865 20.6407 20.633 20.6366 20.636 20.623 20.5944 20.5496 20.4897 20.4165 20.3322 20.2394 20.1405 20.0382 19.9349 19.8332 19.7357 19.6447 19.5625 19.4911 19.4323 19.3874 19.3576 19.3436 19.3457 19.364 19.398 19.4467 19.5091 19.5837 19.6684 19.7614 19.8604 19.9628 20.0661 20.1678 20.2653 20.3558 20.4368 20.5057 20.5599 20.5969 20.6141 20.6091 20.5792 20.5208 20.4276 20.2842 20 
20.891 20.9877 21 20.9877 20.9511 20.891 20.809 20.7071 20.5878 20.454 20.309 20.1564 20 19.8436 19.691 19.546 19.4122 19.2929 19.191 19.109 19.0489 19.0123 19 19.0123 19.0489 19.109 19.191 19.2929 19.4122 19.546 19.691 19.8436 20 20.1564 20.309 20.454 20.5878 20.7071 20.809 20.891 20.9511 20.9877 21 20.9877 20.9511 20.891 20.809 20.7071 20.5878 19.8436 
