# vtk DataFile Version 3.0
Temperature distribution on a 2D grid
ASCII

DATASET STRUCTURED_POINTS
DIMENSIONS 50 50 1
ORIGIN 0.0 0.0 0.0
SPACING 0.01 0.01 1.0

POINT_DATA 2500
SCALARS temperature double
LOOKUP_TABLE default
20.8607 19.2295 19.3387 19.4642 19.6029 19.7513 19.9059 20.0628 20.2181 20.3681 20.509 20.6374 20.7501 20.8443 20.9178 20.9686 20.9956 20.998 20.9759 20.9298 20.8607 20.7705 20.6613 20.5358 20.3971 20.2487 20.0941 19.9372 19.7819 19.6319 19.491 19.3626 19.2499 19.1557 19.0822 19.0314 19.0044 19.002 19.0241 19.0702 19.1393 19.2295 19.3387 19.4642 19.6029 19.7513 19.9059 20.0628 20.2181 20.509 
20.9298 20.139 19.9486 19.9307 19.9846 20.0694 20.1658 20.2636 20.3565 20.4406 20.5132 20.5724 20.6167 20.6454 20.6578 20.6538 20.6335 20.5976 20.547 20.483 20.407 20.3211 20.2272 20.1278 20.0252 19.9221 19.8208 19.724 19.634 19.553 19.4831 19.4259 19.3829 19.3551 19.3431 19.3473 19.3674 19.403 19.453 19.5162 19.5912 19.6766 19.7711 19.8743 19.9862 20.1078 20.2398 20.3801 20.5183 20.6374 
20.9759 20.4854 20.2517 20.1638 20.1553 20.1868 20.2353 20.2876 20.3359 20.3761 20.4059 20.4242 20.4308 20.4257 20.4096 20.3829 20.3465 20.3015 20.2491 20.1906 20.1274 20.061 19.9933 19.9257 19.8599 19.7977 19.7404 19.6896 19.6464 19.612 19.5871 19.5725 19.5685 19.5751 19.5922 19.6192 19.6554 19.6998 19.751 19.8079 19.8691 19.934 20.0027 20.0768 20.1598 20.2567 20.3726 20.5081 20.6493 20.7501 
20.998 20.622 20.3835 20.2564 20.2042 20.1958 20.2093 20.2305 20.2508 20.2655 20.2723 20.2706 20.2605 20.2426 20.2178 20.1871 20.1515 20.1119 20.0696 20.0256 19.981 19.9369 19.8944 19.8546 19.8184 19.7866 19.7602 19.7397 19.7256 19.7184 19.7181 19.7249 19.7385 19.7586 19.7846 19.8159 19.8514 19.89 19.9306 19.9721 20.0135 20.055 20.0979 20.1456 20.2043 20.2828 20.3908 20.5333 20.6996 20.8443 
20.9956 20.6735 20.4335 20.2808 20.1975 20.1604 20.1498 20.1513 20.1557 20.1577 20.1549 20.1462 20.1321 20.1131 20.0903 20.0644 20.0367 20.0078 19.9787 19.9501 19.9228 19.8974 19.8747 19.855 19.839 19.827 19.8193 19.8161 19.8174 19.8234 19.8337 19.8483 19.8667 19.8884 19.9129 19.9394 19.9671 19.9949 20.0218 20.047 20.0699 20.0911 20.1128 20.1396 20.1801 20.246 20.3512 20.5064 20.7075 20.9178 
20.9686 20.6866 20.449 20.2802 20.1752 20.1178 20.0909 20.0804 20.0767 20.0738 20.0687 20.0602 20.0483 20.0336 20.0168 19.9988 19.9803 19.9622 19.9448 19.9289 19.9148 19.9028 19.8933 19.8864 19.8824 19.8814 19.8833 19.8881 19.8958 19.9061 19.9188 19.9337 19.9502 19.9682 19.9869 20.0058 20.0242 20.0412 20.056 20.0678 20.0763 20.0822 20.0882 20.0999 20.127 20.1837 20.2877 20.4554 20.6908 20.9686 
20.9178 20.6789 20.4515 20.2752 20.1564 20.0852 20.0473 20.0294 20.0218 20.0178 20.014 20.0085 20.0011 19.992 19.9818 19.9713 19.9609 19.9513 19.9428 19.9357 19.9302 19.9265 19.9247 19.9247 19.9267 19.9306 19.9362 19.9434 19.9521 19.9621 19.9731 19.9849 19.9973 20.0098 20.0222 20.0339 20.0443 20.0528 20.0586 20.0609 20.0595 20.0552 20.0505 20.0513 20.068 20.1167 20.2182 20.3941 20.6574 20.9956 
20.8443 20.6568 20.4487 20.2735 20.1475 20.0673 20.0219 19.9993 19.9896 19.9859 19.9842 19.9822 19.9792 19.9753 19.9707 19.9659 19.9615 19.9577 19.9549 19.9531 19.9525 19.9532 19.9551 19.9581 19.9622 19.9673 19.9733 19.98 19.9873 19.9949 20.0029 20.0109 20.0188 20.0264 20.0335 20.0396 20.0444 20.0471 20.0472 20.0437 20.0364 20.0256 20.0138 20.0067 20.0148 20.0551 20.1509 20.329 20.6109 20.998 
20.7501 20.622 20.4419 20.2753 20.1479 20.0627 20.0121 19.9859 19.9747 19.9714 19.9714 19.9723 19.9728 19.9726 19.972 19.9711 19.9704 19.9702 19.9705 19.9715 19.9732 19.9757 19.9788 19.9825 19.9866 19.9911 19.996 20.0009 20.006 20.011 20.0158 20.0205 20.0248 20.0287 20.0321 20.0346 20.0359 20.0354 20.0324 20.0259 20.0155 20.0011 19.9846 19.9714 19.9715 20.0023 20.0888 20.2624 20.5529 20.9759 
20.6374 20.5749 20.4302 20.2785 20.1545 20.0673 20.0133 19.9842 19.9714 19.9679 19.9689 19.9715 19.9742 19.9764 19.9782 19.9797 19.981 19.9826 19.9843 19.9864 19.9889 19.9916 19.9946 19.9978 20.0011 20.0044 20.0076 20.0107 20.0137 20.0164 20.0188 20.021 20.0229 20.0244 20.0255 20.026 20.0256 20.0237 20.0195 20.012 20.0003 19.9841 19.9646 19.9462 19.9384 19.9584 20.0323 20.1949 20.4843 20.9298 
20.509 20.5157 20.4118 20.2804 20.1637 20.0771 20.021 19.9894 19.9747 19.9703 19.9714 19.9747 19.9785 19.9821 19.9851 19.9877 19.99 19.9922 19.9944 19.9967 19.999 20.0013 20.0037 20.006 20.0081 20.0102 20.012 20.0136 20.0149 20.016 20.0169 20.0175 20.0179 20.0181 20.0181 20.0178 20.0168 20.0146 20.0104 20.0031 19.9914 19.9745 19.9529 19.93 19.9144 19.9224 19.9806 20.1268 20.4059 20.8607 
20.3681 20.4451 20.3855 20.2784 20.1725 20.0887 20.0316 19.9979 19.9812 19.9754 19.9758 19.979 19.9831 19.9871 19.9907 19.9937 19.9963 19.9985 20.0006 20.0026 20.0045 20.0062 20.0078 20.0093 20.0105 20.0115 20.0123 20.0128 20.0131 20.0132 20.0131 20.0128 20.0125 20.0122 20.0118 20.0113 20.0105 20.0087 20.0052 19.9987 19.9876 19.9707 19.9477 19.9209 19.8975 19.8929 19.9332 20.0582 20.3189 20.7705 
20.2181 20.3642 20.351 20.2711 20.1786 20.0997 20.0429 20.0074 19.9887 19.9812 19.9804 19.983 19.9869 19.9908 19.9943 19.9974 19.9999 20.002 20.0038 20.0053 20.0067 20.0079 20.0089 20.0096 20.0102 20.0105 20.0107 20.0105 20.0103 20.0098 20.0092 20.0086 20.0081 20.0076 20.0073 20.007 20.0066 20.0056 20.003 19.9976 19.9875 19.9711 19.9472 19.917 19.8863 19.8687 19.8897 19.9898 20.2249 20.6613 
20.0628 20.2746 20.3083 20.2576 20.1809 20.1086 20.0532 20.0167 19.996 19.9867 19.9845 19.9861 19.9894 19.9929 19.9963 19.9991 20.0014 20.0032 20.0047 20.006 20.0069 20.0077 20.0082 20.0086 20.0087 20.0087 20.0084 20.008 20.0074 20.0068 20.0061 20.0054 20.0048 20.0045 20.0044 20.0045 20.0047 20.0044 20.0029 19.9987 19.9898 19.9742 19.9499 19.9169 19.8794 19.8491 19.85 19.9224 20.1257 20.5358 
19.9059 20.1782 20.258 20.2379 20.1786 20.1146 20.0619 20.025 20.0028 19.9916 19.9879 19.9884 19.9908 19.9939 19.9969 19.9995 20.0015 20.0032 20.0044 20.0054 20.0061 20.0066 20.0069 20.007 20.0069 20.0066 20.0063 20.0057 20.0051 20.0044 20.0038 20.0032 20.0027 20.0025 20.0027 20.0032 20.0039 20.0044 20.0038 20.0009 19.9934 19.9788 19.9547 19.9196 19.8762 19.8338 19.8144 19.8572 20.0236 20.3971 
19.7513 20.0775 20.2013 20.2121 20.1717 20.1175 20.0685 20.032 20.0086 19.9959 19.9907 19.99 19.9916 19.9941 19.9967 19.999 20.0009 20.0024 20.0035 20.0043 20.0048 20.0052 20.0053 20.0053 20.0052 20.0049 20.0045 20.004 20.0034 20.0028 20.0022 20.0017 20.0014 20.0014 20.0017 20.0025 20.0037 20.0048 20.0052 20.0035 19.9975 19.9843 19.9608 19.9245 19.8761 19.8227 19.7834 19.7956 19.9209 20.2487 
19.6029 19.9747 20.1395 20.1809 20.1602 20.117 20.0729 20.0377 20.0137 19.9997 19.9931 19.9912 19.9919 19.9939 19.9961 19.9982 19.9999 20.0013 20.0023 20.003 20.0035 20.0038 20.0039 20.0039 20.0038 20.0035 20.0032 20.0027 20.0022 20.0017 20.0012 20.0008 20.0006 20.0007 20.0012 20.0022 20.0037 20.0054 20.0066 20.006 20.0015 19.99 19.9677 19.931 19.8788 19.8157 19.7576 19.7389 19.8202 20.0941 
19.4642 19.8725 20.0741 20.1449 20.1445 20.1133 20.0752 20.0421 20.0181 20.0031 19.9952 19.9923 19.9922 19.9935 19.9954 19.9973 19.9989 20.0002 20.0011 20.0018 20.0023 20.0026 20.0027 20.0027 20.0027 20.0025 20.0022 20.0018 20.0014 20.001 20.0006 20.0003 20.0001 20.0002 20.0008 20.0019 20.0036 20.0057 20.0077 20.0083 20.0054 19.9957 19.9751 19.939 19.8843 19.8131 19.7376 19.6885 19.7238 19.9372 
19.3387 19.7733 20.0067 20.1053 20.1251 20.1066 20.0754 20.0452 20.0217 20.0061 19.9973 19.9933 19.9925 19.9933 19.9948 19.9965 19.9979 19.9992 20.0001 20.0008 20.0013 20.0016 20.0018 20.0019 20.0018 20.0017 20.0015 20.0012 20.0009 20.0005 20.0002 19.9999 19.9997 19.9999 20.0004 20.0016 20.0034 20.0058 20.0084 20.0101 20.0088 20.0013 19.9828 19.9481 19.8924 19.8149 19.7239 19.6456 19.6341 19.7819 
19.2295 19.6798 19.9392 20.063 20.1025 20.0972 20.0736 20.047 20.0247 20.0089 19.9993 19.9945 19.9929 19.9932 19.9944 19.9958 19.9972 19.9984 19.9993 20 20.0005 20.0009 20.0011 20.0012 20.0012 20.0011 20.001 20.0007 20.0005 20.0002 19.9998 19.9995 19.9994 19.9995 20 20.0011 20.0029 20.0056 20.0087 20.0114 20.0118 20.0065 19.9907 19.9583 19.9029 19.821 19.7169 19.6114 19.5534 19.6319 
19.1393 19.594 19.8731 20.0191 20.0772 20.0853 20.0699 20.0476 20.027 20.0114 20.0014 19.9959 19.9936 19.9933 19.9941 19.9953 19.9966 19.9977 19.9986 19.9994 19.9999 20.0003 20.0005 20.0007 20.0007 20.0007 20.0006 20.0004 20.0002 19.9999 19.9995 19.9992 19.999 19.999 19.9994 20.0004 20.0023 20.0051 20.0087 20.0123 20.0143 20.0114 19.9987 19.9694 19.9157 19.8313 19.7166 19.5867 19.4836 19.491 
19.0702 19.5183 19.8101 19.9746 20.05 20.0712 20.0644 20.047 20.0286 20.0136 20.0033 19.9973 19.9944 19.9937 19.9941 19.9951 19.9962 19.9973 19.9982 19.9989 19.9994 19.9998 20.0001 20.0003 20.0004 20.0004 20.0003 20.0001 19.9999 19.9996 19.9993 19.9989 19.9986 19.9985 19.9988 19.9997 20.0014 20.0043 20.0082 20.0127 20.0162 20.0158 20.0065 19.981 19.9303 19.8458 19.7233 19.572 19.4265 19.3626 
19.0241 19.4544 19.7517 19.9308 20.0216 20.0553 20.0573 20.0452 20.0295 20.0155 20.0052 19.9988 19.9955 19.9942 19.9943 19.9951 19.996 19.997 19.9979 19.9986 19.9991 19.9995 19.9998 20 20.0001 20.0001 20.0001 19.9999 19.9997 19.9994 19.999 19.9986 19.9983 19.998 19.9981 19.9988 20.0004 20.0033 20.0075 20.0127 20.0177 20.0198 20.0141 19.993 19.9466 19.8639 19.7367 19.5679 19.3836 19.2499 
19.002 19.404 19.6994 19.8886 19.9926 20.0381 20.0488 20.0422 20.0296 20.017 20.007 20.0004 19.9966 19.995 19.9947 19.9952 19.996 19.9969 19.9977 19.9984 19.9989 19.9993 19.9996 19.9998 19.9999 19.9999 19.9999 19.9998 19.9995 19.9992 19.9988 19.9984 19.9979 19.9976 19.9975 19.998 19.9994 20.0021 20.0065 20.0123 20.0186 20.0232 20.0212 20.0051 19.9642 19.8853 19.7566 19.5744 19.3558 19.1557 
19.0044 19.3682 19.6546 19.8492 19.9637 20.0198 20.039 20.0382 20.029 20.018 20.0086 20.0019 19.9978 19.9958 19.9952 19.9955 19.9961 19.9969 19.9976 19.9983 19.9988 19.9992 19.9995 19.9997 19.9998 19.9998 19.9998 19.9997 19.9994 19.9991 19.9987 19.9982 19.9976 19.9972 19.9969 19.9972 19.9983 20.0009 20.0052 20.0115 20.0191 20.0259 20.0278 20.0171 19.9826 19.9095 19.7825 19.5913 19.3438 19.0822 
19.0314 19.3479 19.6182 19.8135 19.9357 20.0011 20.0282 20.0332 20.0276 20.0185 20.0099 20.0034 19.9991 19.9968 19.9959 19.9959 19.9963 19.997 19.9976 19.9982 19.9988 19.9992 19.9994 19.9997 19.9998 19.9998 19.9998 19.9996 19.9994 19.9991 19.9986 19.9981 19.9974 19.9968 19.9964 19.9964 19.9973 19.9996 20.0039 20.0104 20.019 20.028 20.0336 20.0286 20.0014 19.936 19.8136 19.6183 19.348 19.0314 
19.0822 19.3437 19.5912 19.7823 19.9093 19.9823 20.0167 20.0274 20.0255 20.0186 20.011 20.0047 20.0004 19.9978 19.9966 19.9964 19.9966 19.9972 19.9977 19.9983 19.9988 19.9992 19.9995 19.9997 19.9998 19.9998 19.9998 19.9997 19.9994 19.9991 19.9986 19.998 19.9973 19.9966 19.996 19.9958 19.9964 19.9983 20.0024 20.0091 20.0184 20.0294 20.0386 20.0393 20.0201 19.964 19.8494 19.6547 19.3682 19.0044 
19.1557 19.3557 19.5743 19.7564 19.8851 19.9639 20.0048 20.0208 20.0227 20.0181 20.0117 20.0059 20.0015 19.9988 19.9974 19.9969 19.997 19.9974 19.9979 19.9984 19.9989 19.9992 19.9995 19.9998 19.9999 19.9999 19.9999 19.9998 19.9996 19.9992 19.9987 19.9981 19.9973 19.9965 19.9957 19.9952 19.9955 19.9971 20.0009 20.0075 20.0174 20.03 20.0426 20.0491 20.0383 19.9928 19.8888 19.6996 19.404 19.002 
19.2499 19.3835 19.5678 19.7365 19.8636 19.9463 19.9926 20.0136 20.0192 20.0171 20.0121 20.0068 20.0026 19.9998 19.9982 19.9975 19.9974 19.9977 19.9981 19.9986 19.999 19.9994 19.9997 19.9999 20 20.0001 20.0001 20 19.9998 19.9995 19.999 19.9983 19.9975 19.9966 19.9956 19.9949 19.9948 19.996 19.9994 20.0058 20.016 20.0299 20.0456 20.0577 20.0556 20.0218 19.931 19.7518 19.4545 19.0241 
19.3626 19.4264 19.5719 19.723 19.8454 19.9299 19.9805 20.0059 20.0152 20.0156 20.012 20.0075 20.0035 20.0006 19.9989 19.998 19.9978 19.998 19.9983 19.9987 19.9991 19.9995 19.9998 20.0001 20.0003 20.0004 20.0004 20.0003 20.0001 19.9998 19.9993 19.9987 19.9978 19.9968 19.9957 19.9948 19.9943 19.9951 19.9979 20.0039 20.0142 20.0291 20.0474 20.0648 20.0715 20.0503 19.9748 19.8102 19.5184 19.0702 
19.491 19.4835 19.5864 19.7163 19.8309 19.9151 19.9687 19.998 20.0106 20.0135 20.0114 20.0078 20.0042 20.0013 19.9995 19.9985 19.9982 19.9982 19.9985 19.9989 19.9993 19.9997 20.0001 20.0004 20.0006 20.0008 20.0008 20.0008 20.0006 20.0003 19.9999 19.9992 19.9984 19.9973 19.9961 19.9949 19.9941 19.9943 19.9965 20.002 20.012 20.0275 20.0481 20.0703 20.0856 20.0775 20.0193 19.8732 19.5941 19.1393 
19.6319 19.5532 19.6111 19.7164 19.8204 19.9023 19.9575 19.9899 20.0056 20.0108 20.0104 20.0077 20.0045 20.0018 20 19.9989 19.9985 19.9985 19.9987 19.9991 19.9996 20 20.0004 20.0008 20.0011 20.0013 20.0014 20.0014 20.0013 20.0011 20.0006 20 19.9991 19.998 19.9966 19.9952 19.994 19.9937 19.9952 20 20.0095 20.0252 20.0475 20.074 20.0975 20.1027 20.0632 19.9393 19.6798 19.2295 
19.7819 19.6339 19.6453 19.7234 19.8141 19.8916 19.9471 19.9817 20.0001 20.0076 20.0088 20.0071 20.0045 20.0021 20.0003 19.9992 19.9988 19.9987 19.999 19.9994 19.9999 20.0004 20.0009 20.0013 20.0017 20.002 20.0022 20.0023 20.0022 20.002 20.0016 20.001 20.0001 19.9989 19.9974 19.9957 19.9942 19.9933 19.9941 19.9979 20.0067 20.0222 20.0456 20.0757 20.1069 20.1253 20.1054 20.0068 19.7734 19.3387 
19.9372 19.7235 19.688 19.7369 19.8122 19.8832 19.9377 19.9737 19.9942 20.0039 20.0068 20.0062 20.0042 20.0022 20.0005 19.9995 19.9991 19.9991 19.9994 19.9999 20.0005 20.0011 20.0017 20.0022 20.0027 20.003 20.0033 20.0034 20.0034 20.0032 20.0028 20.0021 20.0012 19.9999 19.9983 19.9964 19.9944 19.993 19.9929 19.9958 20.0035 20.0184 20.0424 20.0754 20.1134 20.1446 20.145 20.0741 19.8725 19.4642 
20.0941 19.8199 19.7383 19.7567 19.8146 19.8774 19.9294 19.966 19.9882 19.9997 20.0043 20.0049 20.0037 20.0021 20.0008 19.9999 19.9996 19.9997 20.0001 20.0007 20.0014 20.0021 20.0028 20.0034 20.004 20.0044 20.0047 20.0048 20.0048 20.0045 20.0041 20.0034 20.0024 20.001 19.9991 19.997 19.9946 19.9925 19.9916 19.9934 19.9999 20.0138 20.0377 20.0728 20.1169 20.1601 20.1807 20.1394 19.9746 19.6029 
20.2487 19.9205 19.7948 19.7823 19.8212 19.8744 19.9226 19.9588 19.9823 19.9955 20.0016 20.0034 20.0032 20.0022 20.0013 20.0007 20.0005 20.0008 20.0014 20.0021 20.0029 20.0037 20.0045 20.0052 20.0057 20.0061 20.0064 20.0064 20.0063 20.006 20.0054 20.0045 20.0033 20.0017 19.9997 19.9972 19.9944 19.9917 19.99 19.9905 19.9956 20.0083 20.0316 20.068 20.117 20.1713 20.2118 20.2011 20.0773 19.7513 
20.3971 20.0232 19.8564 19.8131 19.8323 19.8744 19.9177 19.9526 19.9768 19.9915 19.9991 20.0023 20.0031 20.0028 20.0024 20.0022 20.0023 20.0028 20.0035 20.0043 20.0052 20.006 20.0068 20.0074 20.0079 20.0081 20.0082 20.008 20.0077 20.0071 20.0062 20.0051 20.0037 20.0018 19.9995 19.9967 19.9935 19.9902 19.9876 19.987 19.9906 20.0017 20.024 20.0609 20.1138 20.178 20.2374 20.2577 20.1781 19.9059 
20.5358 20.1253 19.9216 19.8489 19.8478 19.8779 19.9153 19.9483 19.9727 19.9885 19.9976 20.0021 20.004 20.0046 20.0047 20.0049 20.0053 20.0059 20.0067 20.0075 20.0083 20.009 20.0096 20.01 20.0101 20.01 20.0097 20.0091 20.0083 20.0073 20.0061 20.0045 20.0028 20.0006 19.998 19.9949 19.9914 19.9876 19.9842 19.9826 19.9848 19.9942 20.0151 20.0518 20.1075 20.1801 20.2571 20.308 20.2745 20.0628 
20.6613 20.2247 19.9895 19.8893 19.8682 19.8857 19.9165 19.9468 19.9709 19.9876 19.998 20.0039 20.0068 20.0083 20.009 20.0095 20.01 20.0106 20.0112 20.0117 20.0122 20.0124 20.0125 20.0122 20.0118 20.011 20.01 20.0088 20.0073 20.0057 20.0039 20.0019 19.9997 19.9973 19.9945 19.9912 19.9876 19.9835 19.9797 19.9773 19.9784 19.9862 20.0054 20.0414 20.0987 20.1781 20.2709 20.351 20.3643 20.2181 
20.7705 20.3193 20.059 19.9344 19.8943 19.8992 19.9228 19.9498 19.9732 19.9904 20.0018 20.0088 20.0126 20.0146 20.0156 20.0162 20.0165 20.0166 20.0166 20.0164 20.016 20.0153 20.0143 20.013 20.0115 20.0097 20.0077 20.0055 20.0032 20.0008 19.9984 19.996 19.9935 19.991 19.9883 19.9853 19.9819 19.9781 19.9744 19.9718 19.9721 19.9787 19.9963 20.031 20.0889 20.1732 20.2794 20.3865 20.4457 20.3681 
20.8607 20.4075 20.1297 19.9848 19.9275 19.9201 19.9362 19.9595 19.9814 19.9985 20.0104 20.0179 20.0221 20.0241 20.0248 20.0247 20.0241 20.023 20.0217 20.02 20.018 20.0157 20.0131 20.0102 20.0071 20.0039 20.0006 19.9973 19.9942 19.9912 19.9884 19.9858 19.9836 19.9815 19.9794 19.9773 19.975 19.9723 19.9695 19.9674 19.9678 19.9736 19.9898 20.0229 20.0802 20.1675 20.2841 20.4148 20.5174 20.509 
20.9298 20.4878 20.2015 20.0414 19.9695 19.9508 19.9592 19.9779 19.9975 20.0135 20.0248 20.0317 20.0352 20.0362 20.0354 20.0335 20.0308 20.0275 20.0237 20.0196 20.0151 20.0103 20.0054 20.0004 19.9955 19.9907 19.9862 19.9821 19.9784 19.9753 19.9728 19.971 19.9698 19.9692 19.969 19.9689 19.9688 19.9683 19.9677 19.9673 19.9687 19.9746 19.9897 20.0208 20.0762 20.1639 20.2871 20.4368 20.5785 20.6374 
20.9759 20.5593 20.2744 20.1054 20.0221 19.9931 19.9938 20.0069 20.0226 20.0357 20.0446 20.0492 20.0501 20.0481 20.0442 20.0388 20.0324 20.0253 20.0178 20.01 20.0021 19.9943 19.9867 19.9795 19.9729 19.967 19.9619 19.9578 19.9547 19.9529 19.9522 19.9527 19.9543 19.9569 19.9601 19.9639 19.9676 19.971 19.9739 19.9765 19.9799 19.9866 20.0009 20.0295 20.0814 20.1664 20.2917 20.4542 20.6285 20.7501 
20.998 20.6212 20.3484 20.1774 20.0862 20.0482 20.0403 20.0461 20.0554 20.0629 20.0665 20.0658 20.0613 20.0539 20.0443 20.0332 20.0213 20.0089 19.9964 19.9842 19.9725 19.9615 19.9516 19.943 19.9358 19.9302 19.9264 19.9244 19.9244 19.9262 19.9299 19.9353 19.9423 19.9506 19.9598 19.9694 19.9789 19.9878 19.9957 20.0023 20.0086 20.0163 20.0294 20.0544 20.1005 20.179 20.3005 20.4684 20.667 20.8443 
20.9956 20.6723 20.422 20.2558 20.1602 20.1134 20.0953 20.0907 20.0899 20.0877 20.0819 20.072 20.0585 20.0423 20.0243 20.0054 19.9862 19.9674 19.9495 19.933 19.9183 19.9056 19.8954 19.8878 19.883 19.8811 19.8821 19.8862 19.893 19.9026 19.9145 19.9286 19.9445 19.9616 19.9793 19.9971 20.0142 20.0297 20.0431 20.054 20.0626 20.0705 20.081 20.1 20.1367 20.2034 20.314 20.4785 20.6922 20.9178 
20.9686 20.7095 20.4906 20.3346 20.2363 20.1797 20.148 20.1283 20.112 20.0946 20.0741 20.0504 20.0239 19.9959 19.9672 19.9391 19.9124 19.8878 19.8661 19.8478 19.8333 19.823 19.8171 19.8158 19.819 19.8268 19.8388 19.8548 19.8745 19.8973 19.9226 19.9499 19.9784 20.0073 20.0358 20.063 20.088 20.1097 20.1274 20.1404 20.1487 20.1535 20.1573 20.1657 20.1875 20.2354 20.3264 20.4777 20.6981 20.9686 
20.9178 20.7261 20.5422 20.3983 20.2965 20.2264 20.1756 20.1343 20.0959 20.057 20.0165 19.9746 19.9323 19.8908 19.8516 19.8157 19.7843 19.7582 19.7381 19.7245 19.7178 19.7181 19.7254 19.7394 19.76 19.7864 19.8182 19.8544 19.8943 19.9368 19.9809 20.0255 20.0694 20.1116 20.1508 20.186 20.216 20.2399 20.2566 20.2656 20.2668 20.261 20.2507 20.2405 20.2386 20.2581 20.3185 20.4456 20.6671 20.9956 
20.8443 20.7061 20.552 20.4163 20.3058 20.2156 20.1382 20.0678 20.0005 19.9349 19.8709 19.8095 19.7521 19.7003 19.6556 19.6191 19.5919 19.5748 19.5682 19.5723 19.5869 19.6118 19.6462 19.6894 19.7403 19.7975 19.8598 19.9256 19.9932 20.061 20.1273 20.1905 20.249 20.3013 20.3461 20.3821 20.4083 20.4238 20.428 20.4206 20.4017 20.3725 20.3352 20.2939 20.2559 20.2339 20.2485 20.3353 20.5526 20.998 
20.7501 20.6144 20.4721 20.3337 20.2051 20.0861 19.9746 19.8692 19.7698 19.6769 19.5921 19.5171 19.4536 19.4033 19.3675 19.3472 19.343 19.3549 19.3827 19.4258 19.483 19.5529 19.6339 19.7239 19.8208 19.922 20.0252 20.1277 20.2272 20.321 20.407 20.4829 20.547 20.5975 20.6333 20.6534 20.6571 20.6444 20.6153 20.5704 20.511 20.4386 20.3559 20.2667 20.1769 20.0964 20.0432 20.0556 20.2288 20.9759 
20.6374 20.3681 20.2181 20.0628 19.9059 19.7513 19.6029 19.4642 19.3387 19.2295 19.1393 19.0702 19.0241 19.002 19.0044 19.0314 19.0822 19.1557 19.2499 19.3626 19.491 19.6319 19.7819 19.9372 20.0941 20.2487 20.3971 20.5358 20.6613 20.7705 20.8607 20.9298 20.9759 20.998 20.9956 20.9686 20.9178 20.8443 20.7501 20.6374 20.509 20.3681 20.2181 20.0628 19.9059 19.7513 19.6029 19.4642 19.3387 20.9298 
