# vtk DataFile Version 3.0
Temperature distribution on a 2D grid
ASCII

DATASET STRUCTURED_POINTS
DIMENSIONS 50 50 1
ORIGIN 0.0 0.0 0.0
SPACING 0.01 0.01 1.0

POINT_DATA 2500
SCALARS temperature double
LOOKUP_TABLE default
20.1874 19.9686 20.1253 20.279 20.4258 20.5621 20.6845 20.7902 20.8763 20.9409 20.9823 20.9995 20.9921 20.9603 20.9048 20.8271 20.729 20.6129 20.4818 20.3387 20.1874 20.0314 19.8747 19.721 19.5742 19.4379 19.3155 19.2098 19.1237 19.0591 19.0177 19.0005 19.0079 19.0397 19.0952 19.1729 19.271 19.3871 19.5182 19.6613 19.8126 19.9686 20.1253 20.279 20.4258 20.5621 20.6845 20.7902 20.8763 20.9823 
20.3387 20.2003 20.2429 20.3275 20.4174 20.4984 20.5642 20.6123 20.6416 20.6521 20.6444 20.6194 20.5783 20.5224 20.4534 20.3731 20.2836 20.1872 20.0862 19.9831 19.8804 19.7807 19.6864 19.5999 19.5232 19.4582 19.4066 19.3696 19.3481 19.3427 19.3535 19.3802 19.4222 19.4785 19.5476 19.6278 19.7172 19.8134 19.9138 20.016 20.117 20.2145 20.3062 20.3911 20.4695 20.5447 20.623 20.715 20.8343 20.9995 
20.4818 20.2733 20.229 20.253 20.2988 20.344 20.3781 20.3972 20.4005 20.3887 20.3634 20.3265 20.2798 20.2253 20.1647 20.0999 20.0326 19.9645 19.8974 19.8329 19.7725 19.7178 19.67 19.6304 19.5999 19.5793 19.569 19.5693 19.5803 19.6016 19.6327 19.6729 19.7212 19.7764 19.8371 19.9019 19.969 20.0366 20.1027 20.1654 20.2226 20.2728 20.3152 20.3508 20.3833 20.421 20.4785 20.5765 20.7404 20.9921 
20.6129 20.3149 20.1898 20.1568 20.1652 20.1858 20.2032 20.2107 20.2062 20.1904 20.1649 20.1317 20.0929 20.0505 20.0062 19.9615 19.9176 19.8758 19.8372 19.8027 19.7731 19.7491 19.7314 19.7203 19.7161 19.7189 19.7286 19.745 19.7677 19.7962 19.8296 19.8674 19.9084 19.9518 19.9964 20.0411 20.0848 20.1259 20.1632 20.195 20.2201 20.2373 20.2466 20.2503 20.2542 20.2703 20.3185 20.4273 20.6311 20.9603 
20.729 20.3595 20.1669 20.084 20.0603 20.0625 20.0708 20.0754 20.0724 20.0612 20.0429 20.0196 19.993 19.9649 19.9369 19.91 19.8853 19.8635 19.8451 19.8307 19.8205 19.8148 19.8137 19.8173 19.8253 19.8377 19.854 19.874 19.8971 19.9227 19.9503 19.9791 20.0086 20.0379 20.0664 20.0933 20.1178 20.139 20.1557 20.1669 20.1713 20.1681 20.1576 20.1423 20.1291 20.132 20.174 20.2892 20.5194 20.9048 
20.8271 20.4125 20.1698 20.0466 19.9961 19.9834 19.9859 19.9909 19.9924 19.9883 19.9791 19.9662 19.9512 19.9355 19.9204 19.9068 19.8954 19.8867 19.8808 19.878 19.8784 19.8817 19.8881 19.8972 19.9089 19.9229 19.9387 19.9561 19.9745 19.9936 20.0129 20.032 20.0504 20.0676 20.0833 20.0971 20.1084 20.1165 20.1207 20.1199 20.1129 20.0988 20.0776 20.0517 20.0281 20.021 20.0554 20.1687 20.409 20.8271 
20.9048 20.4701 20.1946 20.0409 19.9685 19.9432 19.9408 19.9465 19.9522 19.9547 19.9534 19.9491 19.943 19.9364 19.9302 19.9252 19.9218 19.9205 19.9212 19.924 19.9288 19.9354 19.9436 19.9533 19.9642 19.9759 19.9883 20.0009 20.0135 20.0259 20.0376 20.0485 20.0583 20.0668 20.0738 20.0792 20.0826 20.0835 20.0813 20.0748 20.0628 20.044 20.018 19.9865 19.9556 19.9393 19.9627 20.0653 20.3003 20.729 
20.9603 20.5267 20.2333 20.0581 19.9681 19.9316 19.924 19.9292 19.9377 19.9448 19.9492 19.951 19.9509 19.95 19.9492 19.949 19.9498 19.9519 19.9553 19.9599 19.9656 19.9722 19.9796 19.9875 19.9957 20.0041 20.0124 20.0203 20.0278 20.0346 20.0407 20.0458 20.0499 20.0529 20.0549 20.0557 20.0552 20.053 20.0484 20.0403 20.0273 20.0076 19.9801 19.9455 19.909 19.8829 19.8919 19.9761 20.1928 20.6129 
20.9921 20.5769 20.278 20.0889 19.9849 19.9382 19.9249 19.9281 19.9375 19.9472 19.955 19.9604 19.9639 19.9662 19.9681 19.9701 19.9726 19.9757 19.9795 19.9839 19.9888 19.9941 19.9996 20.0051 20.0105 20.0157 20.0205 20.0248 20.0285 20.0315 20.0338 20.0353 20.0361 20.0363 20.0358 20.0347 20.0328 20.03 20.0254 20.018 20.006 19.9874 19.9602 19.9241 19.8825 19.8462 19.8381 19.8981 20.0862 20.4818 
20.9995 20.6166 20.3225 20.1258 20.0111 19.9549 19.9353 19.9354 19.9438 19.9543 19.9637 19.9709 19.9762 19.9801 19.9831 19.9857 19.9884 19.9913 19.9945 19.9979 20.0014 20.005 20.0085 20.0119 20.015 20.0177 20.02 20.0218 20.0231 20.0238 20.024 20.0237 20.0229 20.0218 20.0205 20.019 20.0173 20.0151 20.0118 20.0061 19.9962 19.9795 19.9535 19.9165 19.8704 19.8238 19.7971 19.829 19.9809 20.3387 
20.9823 20.6429 20.3622 20.1635 20.041 19.9764 19.9502 19.946 19.9523 19.9621 19.9717 19.9796 19.9855 19.9898 19.993 19.9956 19.9979 20.0001 20.0023 20.0046 20.0068 20.0089 20.0109 20.0126 20.014 20.0152 20.0159 20.0163 20.0162 20.0158 20.015 20.0139 20.0127 20.0113 20.01 20.0089 20.008 20.0069 20.0052 20.0016 19.994 19.9796 19.9553 19.9182 19.8682 19.8115 19.766 19.7677 19.8779 20.1874 
20.9409 20.654 20.3942 20.1986 20.071 19.9991 19.9663 19.9573 19.9606 19.9688 19.9777 19.9854 19.9914 19.9956 19.9987 20.0009 20.0026 20.0041 20.0055 20.0067 20.0079 20.009 20.0098 20.0105 20.011 20.0111 20.0111 20.0107 20.0101 20.0092 20.0081 20.007 20.0057 20.0046 20.0037 20.0033 20.0032 20.0034 20.0032 20.0016 19.9963 19.9844 19.962 19.9253 19.8724 19.8067 19.7429 19.7136 19.7787 20.0314 
20.8763 20.6492 20.4166 20.2287 20.099 20.0213 19.9822 19.9681 19.9679 19.974 19.9817 19.9888 19.9944 19.9984 20.0012 20.003 20.0043 20.0052 20.0059 20.0065 20.0069 20.0073 20.0076 20.0076 20.0076 20.0073 20.0069 20.0063 20.0055 20.0046 20.0036 20.0026 20.0017 20.0009 20.0005 20.0006 20.0013 20.0025 20.0037 20.0038 20.0008 19.9914 19.9713 19.9356 19.8808 19.8076 19.7268 19.6671 19.6853 19.8747 
20.7902 20.6283 20.4285 20.2528 20.1239 20.0419 19.9973 19.9782 19.9743 19.9778 19.9841 19.9903 19.9955 19.9992 20.0017 20.0032 20.0041 20.0047 20.005 20.0052 20.0052 20.0053 20.0052 20.005 20.0047 20.0043 20.0039 20.0033 20.0026 20.0018 20.001 20.0003 19.9996 19.9992 19.9992 19.9997 20.001 20.003 20.0053 20.0069 20.0059 19.9989 19.9814 19.9476 19.8921 19.8131 19.7173 19.6288 19.5995 19.721 
20.6845 20.5917 20.4295 20.2701 20.145 20.0606 20.0114 19.9877 19.9799 19.9809 19.9855 19.9908 19.9954 19.9988 20.0011 20.0025 20.0032 20.0036 20.0037 20.0037 20.0036 20.0034 20.0032 20.003 20.0027 20.0023 20.0019 20.0015 20.0009 20.0004 19.9998 19.9993 19.9988 19.9986 19.9989 19.9997 20.0013 20.0038 20.007 20.0098 20.0107 20.0062 19.9916 19.9604 19.9056 19.8227 19.7144 19.5993 19.5235 19.5742 
20.5621 20.5404 20.4196 20.2803 20.1619 20.0771 20.0244 19.9965 19.9853 19.9836 19.9864 19.9907 19.9948 19.998 20.0001 20.0014 20.0021 20.0024 20.0024 20.0024 20.0022 20.002 20.0019 20.0016 20.0014 20.0011 20.0008 20.0005 20.0002 19.9998 19.9994 19.999 19.9987 19.9986 19.999 19.9999 20.0017 20.0045 20.0083 20.0122 20.0148 20.0128 20.0014 19.9735 19.9208 19.8362 19.7181 19.5793 19.459 19.4379 
20.4258 20.4757 20.3992 20.2833 20.1745 20.0912 20.0363 20.005 19.9905 19.9862 19.9873 19.9905 19.994 19.997 19.9991 20.0004 20.0011 20.0014 20.0014 20.0014 20.0013 20.0011 20.001 20.0008 20.0007 20.0005 20.0003 20.0001 19.9999 19.9996 19.9993 19.9991 19.9989 19.9988 19.9992 20.0001 20.0019 20.0049 20.009 20.0138 20.018 20.0185 20.0105 19.9867 19.9374 19.8532 19.7284 19.5694 19.4077 19.3155 
20.279 20.3992 20.3688 20.2792 20.1826 20.1029 20.0471 20.0131 19.9957 19.989 19.9884 19.9905 19.9934 19.9961 19.9981 19.9994 20.0002 20.0006 20.0007 20.0007 20.0006 20.0006 20.0005 20.0004 20.0003 20.0002 20.0001 20 19.9999 19.9997 19.9995 19.9992 19.9991 19.999 19.9993 20.0001 20.0018 20.0048 20.0092 20.0147 20.0203 20.0233 20.019 19.9997 19.9552 19.8735 19.745 19.57 19.3709 19.2098 
20.1253 20.3128 20.3292 20.2681 20.186 20.1119 20.0565 20.0208 20.0009 19.992 19.9897 19.9908 19.9931 19.9954 19.9974 19.9987 19.9996 20 20.0002 20.0003 20.0003 20.0003 20.0002 20.0002 20.0002 20.0002 20.0001 20.0001 20 19.9998 19.9996 19.9994 19.9992 19.9991 19.9992 19.9999 20.0015 20.0043 20.0089 20.015 20.0219 20.0273 20.0267 20.0125 19.9738 19.8966 19.7678 19.5809 19.3496 19.1237 
19.9686 20.2188 20.2816 20.2503 20.1848 20.1181 20.0646 20.0279 20.0061 19.9952 19.9914 19.9913 19.993 19.995 19.9968 19.9982 19.9991 19.9996 19.9999 20 20.0001 20.0001 20.0001 20.0001 20.0001 20.0002 20.0002 20.0001 20.0001 19.9999 19.9998 19.9995 19.9993 19.9991 19.9991 19.9995 20.0009 20.0036 20.0081 20.0146 20.0227 20.0303 20.0335 20.0248 19.9928 19.9222 19.7961 19.6022 19.3442 19.0591 
19.8126 20.1193 20.2269 20.2264 20.1791 20.1214 20.0711 20.0344 20.0112 19.9986 19.9933 19.9922 19.9931 19.9948 19.9965 19.9978 19.9987 19.9993 19.9997 19.9999 20 20 20.0001 20.0001 20.0001 20.0002 20.0002 20.0002 20.0001 20 19.9998 19.9996 19.9993 19.999 19.9988 19.9991 20.0002 20.0027 20.0071 20.0138 20.0228 20.0326 20.0395 20.0365 20.012 19.9496 19.8295 19.6332 19.3549 19.0177 
19.6613 20.0169 20.1667 20.1969 20.169 20.1217 20.0758 20.0401 20.0161 20.0021 19.9954 19.9932 19.9935 19.9948 19.9962 19.9975 19.9985 19.9991 19.9995 19.9998 19.9999 20 20 20.0001 20.0001 20.0002 20.0002 20.0002 20.0002 20 19.9999 19.9996 19.9992 19.9988 19.9985 19.9986 19.9994 20.0016 20.0058 20.0126 20.0223 20.0339 20.0444 20.0471 20.0308 19.9783 19.867 19.6732 19.3815 19.0005 
19.5182 19.9141 20.1024 20.1625 20.1547 20.119 20.0787 20.0448 20.0205 20.0056 19.9977 19.9945 19.9941 19.9949 19.9962 19.9974 19.9983 19.999 19.9994 19.9997 19.9999 20 20 20.0001 20.0001 20.0002 20.0002 20.0002 20.0001 20 19.9998 19.9996 19.9991 19.9987 19.9983 19.9981 19.9986 20.0005 20.0043 20.0111 20.0213 20.0344 20.0482 20.0566 20.0489 20.0074 19.9078 19.7213 19.4233 19.0079 
19.3871 19.8134 20.0356 20.1242 20.1366 20.1134 20.0797 20.0484 20.0245 20.0089 20 19.996 19.9948 19.9952 19.9962 19.9973 19.9982 19.9989 19.9993 19.9996 19.9998 19.9999 20 20.0001 20.0001 20.0002 20.0002 20.0002 20.0001 20 19.9998 19.9995 19.9991 19.9986 19.998 19.9976 19.9979 19.9993 20.0028 20.0093 20.0197 20.0341 20.0508 20.0648 20.0658 20.0364 19.9508 19.7762 19.4794 19.0397 
19.271 19.7173 19.9679 20.0828 20.1151 20.1051 20.0787 20.0508 20.0279 20.012 20.0024 19.9975 19.9957 19.9956 19.9963 19.9973 19.9981 19.9988 19.9993 19.9996 19.9998 19.9999 20 20.0001 20.0001 20.0001 20.0002 20.0001 20.0001 20 19.9998 19.9995 19.9991 19.9985 19.9978 19.9972 19.9972 19.9982 20.0011 20.0073 20.0177 20.0329 20.0522 20.0713 20.0811 20.0645 19.9951 19.8366 19.5482 19.0952 
19.1729 19.6282 19.901 20.0394 20.0909 20.0941 20.0758 20.052 20.0307 20.0149 20.0047 19.9991 19.9967 19.9962 19.9966 19.9973 19.9981 19.9987 19.9992 19.9996 19.9998 19.9999 20 20.0001 20.0001 20.0001 20.0001 20.0001 20.0001 20 19.9998 19.9995 19.999 19.9984 19.9977 19.9969 19.9965 19.9971 19.9995 20.0051 20.0152 20.031 20.0523 20.0761 20.0943 20.091 20.0395 19.9011 19.6282 19.1729 
19.0952 19.5482 19.8365 19.995 20.0643 20.0808 20.071 20.0519 20.0326 20.0173 20.0069 20.0008 19.9978 19.9968 19.9969 19.9974 19.9981 19.9987 19.9992 19.9995 19.9998 19.9999 20 20 20.0001 20.0001 20.0001 20.0001 20 20 19.9998 19.9995 19.9991 19.9984 19.9976 19.9967 19.996 19.9961 19.9979 20.0028 20.0124 20.0283 20.0511 20.079 20.1053 20.1153 20.0829 19.968 19.7173 19.271 
19.0397 19.4793 19.7761 19.9507 20.0362 20.0656 20.0645 20.0505 20.0338 20.0194 20.0089 20.0024 19.9989 19.9975 19.9973 19.9976 19.9982 19.9987 19.9992 19.9995 19.9997 19.9999 20 20 20 20.0001 20.0001 20 20 19.9999 19.9998 19.9995 19.9991 19.9984 19.9976 19.9965 19.9955 19.9952 19.9963 20.0004 20.0092 20.0249 20.0487 20.08 20.1137 20.1368 20.1243 20.0357 19.8135 19.3871 
19.0079 19.4233 19.7212 19.9076 20.0073 20.0487 20.0564 20.0479 20.0341 20.0209 20.0107 20.004 20.0001 19.9982 19.9977 19.9978 19.9983 19.9987 19.9992 19.9995 19.9997 19.9999 19.9999 20 20 20 20 20 20 19.9999 19.9998 19.9996 19.9992 19.9985 19.9976 19.9965 19.9952 19.9944 19.9949 19.998 20.0059 20.0209 20.0451 20.079 20.1193 20.1549 20.1627 20.1025 19.9141 19.5182 
19.0005 19.3815 19.6731 19.8669 19.9781 20.0306 20.0469 20.0441 20.0336 20.022 20.0123 20.0054 20.0012 19.999 19.9981 19.9981 19.9984 19.9988 19.9991 19.9994 19.9996 19.9998 19.9999 19.9999 20 20 20 20 20 19.9999 19.9999 19.9997 19.9993 19.9987 19.9978 19.9966 19.9951 19.9939 19.9936 19.9958 20.0025 20.0164 20.0404 20.0761 20.1219 20.1692 20.197 20.1669 20.017 19.6613 
19.0177 19.3548 19.6331 19.8293 19.9495 20.0118 20.0362 20.0392 20.0322 20.0224 20.0134 20.0066 20.0022 19.9997 19.9986 19.9983 19.9984 19.9987 19.999 19.9993 19.9995 19.9997 19.9998 19.9998 19.9999 19.9999 19.9999 20 20 20 20 19.9998 19.9995 19.999 19.9981 19.9968 19.9952 19.9935 19.9926 19.9937 19.999 20.0116 20.0348 20.0714 20.1216 20.1793 20.2265 20.2271 20.1194 19.8126 
19.0591 19.3441 19.6021 19.796 19.922 19.9926 20.0245 20.0332 20.0299 20.0222 20.0141 20.0076 20.003 20.0003 19.9989 19.9984 19.9984 19.9986 19.9989 19.9992 19.9994 19.9995 19.9997 19.9997 19.9998 19.9999 19.9999 20 20.0001 20.0001 20.0001 20.0001 19.9999 19.9994 19.9985 19.9972 19.9954 19.9934 19.9918 19.9918 19.9957 20.0065 20.0283 20.0649 20.1184 20.1851 20.2505 20.2817 20.2188 19.9686 
19.1237 19.3495 19.5808 19.7675 19.8963 19.9734 20.0121 20.0262 20.0267 20.0212 20.0143 20.0081 20.0036 20.0007 19.9991 19.9984 19.9983 19.9984 19.9987 19.9989 19.9992 19.9994 19.9995 19.9997 19.9998 19.9999 20.0001 20.0002 20.0003 20.0004 20.0005 20.0005 20.0004 20 19.9992 19.9979 19.996 19.9936 19.9913 19.9902 19.9925 20.0013 20.0212 20.0569 20.1121 20.1862 20.2682 20.3293 20.3129 20.1253 
19.2098 19.3708 19.5697 19.7446 19.873 19.9546 19.9991 20.0183 20.0225 20.0195 20.0138 20.0082 20.0038 20.0008 19.9991 19.9983 19.998 19.9981 19.9984 19.9987 19.999 19.9993 19.9995 19.9998 20 20.0002 20.0004 20.0006 20.0008 20.001 20.0011 20.0012 20.0011 20.0008 20.0001 19.9988 19.9968 19.9941 19.9911 19.9889 19.9895 19.9961 20.0134 20.0473 20.1031 20.1827 20.2793 20.3688 20.3992 20.279 
19.3155 19.4075 19.569 19.7278 19.8524 19.9365 19.9856 20.0094 20.0173 20.0167 20.0126 20.0077 20.0036 20.0007 19.9989 19.998 19.9977 19.9978 19.9982 19.9986 19.999 19.9994 19.9998 20.0001 20.0005 20.0008 20.0011 20.0014 20.0016 20.0019 20.0021 20.0022 20.0022 20.0019 20.0012 19.9999 19.9977 19.9947 19.9911 19.9878 19.9866 19.9907 20.0052 20.0364 20.0912 20.1745 20.2833 20.3991 20.4757 20.4258 
19.4379 19.4587 19.5786 19.7172 19.835 19.9194 19.9719 19.9997 20.0111 20.013 20.0105 20.0066 20.0029 20.0002 19.9985 19.9977 19.9975 19.9977 19.9982 19.9988 19.9994 20 20.0005 20.0011 20.0015 20.002 20.0024 20.0027 20.003 20.0032 20.0034 20.0035 20.0035 20.0032 20.0024 20.001 19.9987 19.9954 19.9911 19.9867 19.9836 19.9852 19.9963 20.0241 20.0767 20.1616 20.28 20.4194 20.5403 20.5621 
19.5742 19.523 19.5983 19.713 19.8209 19.9036 19.9581 19.9893 20.0039 20.0084 20.0077 20.0049 20.002 19.9997 19.9983 19.9977 19.9978 19.9982 19.9989 19.9998 20.0006 20.0014 20.0022 20.0029 20.0035 20.004 20.0044 20.0047 20.0049 20.0051 20.0051 20.0051 20.0048 20.0043 20.0034 20.0018 19.9993 19.9956 19.9907 19.9851 19.9803 19.9792 19.9867 20.0104 20.0596 20.1441 20.2694 20.429 20.5914 20.6845 
19.721 19.5988 19.6274 19.7154 19.8107 19.8894 19.9446 19.9784 19.996 20.0031 20.0044 20.0032 20.0012 19.9997 19.9988 19.9987 19.9991 19.9999 20.0009 20.0021 20.0032 20.0042 20.0051 20.0059 20.0065 20.0069 20.0072 20.0073 20.0073 20.0071 20.0068 20.0064 20.0058 20.0049 20.0036 20.0017 19.9988 19.9947 19.9892 19.9826 19.9761 19.9723 19.9762 19.9953 20.04 20.1223 20.2515 20.4276 20.6278 20.7902 
19.8747 19.6844 19.6655 19.7244 19.8047 19.8775 19.9322 19.9679 19.9883 19.9981 20.0017 20.0021 20.0015 20.001 20.0009 20.0014 20.0023 20.0036 20.005 20.0064 20.0077 20.0088 20.0097 20.0103 20.0107 20.0108 20.0106 20.0102 20.0096 20.0088 20.0078 20.0067 20.0054 20.004 20.0021 19.9997 19.9964 19.9919 19.9859 19.9784 19.9704 19.9643 19.9645 19.9789 20.0183 20.0966 20.2269 20.4154 20.6486 20.8763 
20.0314 19.7779 19.712 19.7406 19.8039 19.8693 19.9223 19.9592 19.9821 19.9947 20.0007 20.0033 20.0043 20.005 20.0059 20.0072 20.0087 20.0103 20.0119 20.0134 20.0145 20.0154 20.0158 20.0159 20.0155 20.0148 20.0137 20.0123 20.0106 20.0087 20.0067 20.0046 20.0024 20.0001 19.9975 19.9946 19.991 19.9861 19.9798 19.9719 19.9629 19.9548 19.9519 19.9616 19.9953 20.068 20.1965 20.393 20.6535 20.9409 
20.1874 19.8775 19.7668 19.7648 19.8102 19.8668 19.9171 19.9547 19.9799 19.9953 20.004 20.0088 20.0117 20.0138 20.0156 20.0174 20.0192 20.0209 20.0222 20.0231 20.0235 20.0234 20.0227 20.0214 20.0196 20.0173 20.0146 20.0116 20.0083 20.0048 20.0013 19.9979 19.9946 19.9913 19.9882 19.9849 19.9812 19.9765 19.9705 19.9628 19.9536 19.9446 19.9393 19.9448 19.9725 20.0385 20.1623 20.3618 20.6428 20.9823 
20.3387 19.9817 19.8305 19.7991 19.8263 19.8735 19.9203 19.9581 19.9853 20.0032 20.0145 20.0215 20.026 20.0291 20.0315 20.0333 20.0346 20.0354 20.0354 20.0348 20.0333 20.0311 20.0281 20.0244 20.0201 20.0154 20.0102 20.0048 19.9993 19.9939 19.9888 19.984 19.9796 19.9758 19.9725 19.9695 19.9664 19.9629 19.9583 19.952 19.944 19.9353 19.9289 19.9313 19.9533 20.0115 20.1276 20.3246 20.618 20.9995 
20.4818 20.0896 19.9044 19.8468 19.8566 19.8942 19.9371 19.9744 20.0029 20.0228 20.0359 20.0443 20.0495 20.0526 20.0541 20.0546 20.0539 20.0521 20.0492 20.0453 20.0402 20.0343 20.0275 20.02 20.0121 20.0038 19.9954 19.9872 19.9794 19.9721 19.9655 19.9599 19.9554 19.952 19.9498 19.9485 19.9477 19.9469 19.9455 19.9425 19.9376 19.9312 19.9256 19.9261 19.943 19.9925 20.0976 20.2858 20.5815 20.9921 
20.6129 20.2009 19.9912 19.9124 19.9072 19.9357 19.9739 20.0095 20.0378 20.058 20.0712 20.079 20.0827 20.0834 20.0818 20.0783 20.073 20.0661 20.0577 20.048 20.0372 20.0255 20.0132 20.0006 19.988 19.9756 19.9639 19.9531 19.9435 19.9353 19.9288 19.9241 19.9214 19.9207 19.9219 19.9248 19.9289 19.9336 19.9379 19.9408 19.9416 19.9399 19.9372 19.9377 19.9501 19.9899 20.0803 20.2518 20.5374 20.9603 
20.729 20.3163 20.0948 20.0022 19.9852 20.0049 20.0372 20.0687 20.0938 20.1109 20.1205 20.1239 20.1223 20.1167 20.1078 20.0963 20.0826 20.067 20.0499 20.0316 20.0126 19.9934 19.9743 19.9558 19.9385 19.9226 19.9087 19.897 19.8879 19.8817 19.8783 19.8781 19.881 19.8869 19.8955 19.9066 19.9194 19.933 19.9465 19.9584 19.9676 19.9731 19.9754 19.9773 19.9859 20.0146 20.0856 20.2311 20.491 20.9048 
20.8271 20.4371 20.2198 20.1225 20.0971 20.1077 20.1309 20.1537 20.17 20.178 20.1778 20.1705 20.1573 20.1393 20.1175 20.0928 20.0658 20.0374 20.0082 19.9788 19.95 19.9225 19.8969 19.8738 19.8538 19.8375 19.8251 19.8171 19.8136 19.8147 19.8205 19.8307 19.8453 19.8637 19.8854 19.9098 19.936 19.9628 19.9889 20.0126 20.0323 20.0465 20.0549 20.0587 20.0629 20.0783 20.1245 20.2329 20.4486 20.8271 
20.9048 20.5645 20.3697 20.2769 20.2452 20.2435 20.2512 20.257 20.2554 20.2447 20.2252 20.1979 20.1645 20.1262 20.0846 20.0408 19.996 19.9514 19.9081 19.8671 19.8294 19.796 19.7676 19.7449 19.7285 19.7188 19.716 19.7202 19.7313 19.7491 19.7731 19.8028 19.8373 19.876 19.9177 19.9614 20.0056 20.0489 20.0896 20.1259 20.1559 20.1776 20.19 20.1933 20.1902 20.1885 20.2036 20.2635 20.415 20.729 
20.9603 20.6979 20.5429 20.4608 20.4203 20.398 20.3787 20.3541 20.3207 20.2777 20.2261 20.1674 20.1037 20.0368 19.9689 19.9017 19.8369 19.7761 19.721 19.6727 19.6326 19.6015 19.5802 19.5692 19.5689 19.5792 19.5998 19.6304 19.67 19.7178 19.7725 19.8329 19.8975 19.9646 20.0327 20.0998 20.1643 20.2241 20.2775 20.3223 20.3568 20.3791 20.3878 20.3826 20.3647 20.3389 20.3157 20.317 20.3865 20.6129 
20.9921 20.8309 20.7255 20.6513 20.5906 20.5313 20.4664 20.3924 20.3088 20.2169 20.1188 20.017 19.9143 19.8135 19.7171 19.6277 19.5474 19.4783 19.4221 19.3801 19.3534 19.3427 19.3481 19.3696 19.4066 19.4582 19.5231 19.5998 19.6864 19.7807 19.8804 19.9831 20.0862 20.1872 20.2837 20.3731 20.4532 20.5218 20.5771 20.6173 20.6409 20.6469 20.6345 20.6038 20.5556 20.4928 20.4217 20.3561 20.3314 20.4818 
20.9995 20.9409 20.8763 20.7902 20.6845 20.5621 20.4258 20.279 20.1253 19.9686 19.8126 19.6613 19.5182 19.3871 19.271 19.1729 19.0952 19.0397 19.0079 19.0005 19.0177 19.0591 19.1237 19.2098 19.3155 19.4379 19.5742 19.721 19.8747 20.0314 20.1874 20.3387 20.4818 20.6129 20.729 20.8271 20.9048 20.9603 20.9921 20.9995 20.9823 20.9409 20.8763 20.7902 20.6845 20.5621 20.4258 20.279 20.1253 20.3387 
