# vtk DataFile Version 3.0
Temperature distribution on a 2D grid
ASCII

DATASET STRUCTURED_POINTS
DIMENSIONS 50 50 1
ORIGIN 0.0 0.0 0.0
SPACING 0.01 0.01 1.0

POINT_DATA 2500
SCALARS temperature double
LOOKUP_TABLE default
19.3871 20.729 20.8271 20.9048 20.9603 20.9921 20.9995 20.9823 20.9409 20.8763 20.7902 20.6845 20.5621 20.4258 20.279 20.1253 19.9686 19.8126 19.6613 19.5182 19.3871 19.271 19.1729 19.0952 19.0397 19.0079 19.0005 19.0177 19.0591 19.1237 19.2098 19.3155 19.4379 19.5742 19.721 19.8747 20.0314 20.1874 20.3387 20.4818 20.6129 20.729 20.8271 20.9048 20.9603 20.9921 20.9995 20.9823 20.9409 20.7902 
19.5182 20.1258 20.3723 20.502 20.5671 20.5894 20.58 20.5459 20.4919 20.4219 20.3393 20.2474 20.1489 20.0466 19.9432 19.8413 19.7434 19.6519 19.5691 19.4969 19.4372 19.3913 19.3605 19.3453 19.3464 19.3635 19.3963 19.4439 19.5053 19.5789 19.6628 19.7551 19.8535 19.9555 20.0587 20.1605 20.2585 20.35 20.4329 20.5047 20.5634 20.6069 20.6337 20.6428 20.6347 20.6125 20.5842 20.5656 20.5851 20.6845 
19.6613 19.8759 20.0507 20.1702 20.2391 20.2673 20.264 20.2372 20.1934 20.1379 20.0751 20.0084 19.9407 19.8741 19.8108 19.7523 19.7001 19.6554 19.6194 19.5929 19.5765 19.5705 19.5751 19.5901 19.6153 19.65 19.6933 19.7442 19.8014 19.8635 19.929 19.9964 20.0639 20.1299 20.1929 20.2512 20.3035 20.3484 20.3845 20.4105 20.425 20.4265 20.414 20.3869 20.347 20.3001 20.2602 20.2544 20.3299 20.5621 
19.8126 19.7941 19.8668 19.95 20.0131 20.0486 20.0582 20.0471 20.0214 19.9863 19.9462 19.9048 19.8644 19.827 19.7939 19.7662 19.7446 19.7294 19.7212 19.7199 19.7256 19.7382 19.7572 19.7822 19.8125 19.8476 19.8863 19.928 19.9714 20.0156 20.0594 20.1019 20.142 20.1787 20.2113 20.2388 20.2607 20.2763 20.2848 20.2855 20.2771 20.2584 20.228 20.1852 20.1318 20.0746 20.0304 20.0318 20.1351 20.4258 
19.9686 19.8014 19.7863 19.8289 19.8806 19.9204 19.9422 19.947 19.9391 19.9228 19.9024 19.881 19.8609 19.8438 19.8306 19.8219 19.8179 19.8187 19.8242 19.8342 19.8484 19.8664 19.8877 19.9117 19.938 19.9659 19.9946 20.0234 20.0518 20.0789 20.1042 20.127 20.1468 20.1632 20.1758 20.1844 20.1888 20.1888 20.1838 20.1734 20.1563 20.1309 20.0954 20.0484 19.9906 19.9285 19.8789 19.876 19.9795 20.279 
20.1253 19.8583 19.7743 19.7796 19.8174 19.8579 19.8882 19.9056 19.9118 19.91 19.9039 19.8964 19.8896 19.8848 19.8829 19.8842 19.8887 19.8962 19.9066 19.9195 19.9344 19.9511 19.9689 19.9876 20.0066 20.0255 20.0438 20.061 20.0768 20.0908 20.1027 20.1121 20.1189 20.123 20.1245 20.1232 20.1193 20.1128 20.1034 20.0905 20.0728 20.0482 20.0142 19.9684 19.9102 19.8442 19.7856 19.7678 19.8502 20.1253 
20.279 19.942 19.8043 19.7766 19.7992 19.8367 19.8716 19.8972 19.913 19.9211 19.9243 19.9253 19.926 19.9277 19.9311 19.9364 19.9436 19.9526 19.963 19.9745 19.9868 19.9994 20.0121 20.0246 20.0365 20.0475 20.0574 20.0659 20.0728 20.078 20.0815 20.083 20.0827 20.0806 20.0768 20.0717 20.0653 20.0578 20.0489 20.0379 20.0234 20.003 19.9734 19.931 19.8735 19.8032 19.7327 19.6924 19.7399 19.9686 
20.4258 20.0388 19.8579 19.8007 19.807 19.8385 19.874 19.9038 19.9253 19.9394 19.9481 19.9537 19.958 19.9624 19.9674 19.9734 19.9804 19.9882 19.9965 20.0051 20.0137 20.0221 20.0299 20.0371 20.0434 20.0486 20.0527 20.0555 20.057 20.0572 20.0561 20.0538 20.0503 20.0459 20.0407 20.0351 20.0292 20.0233 20.017 20.0098 19.9999 19.9847 19.9602 19.9217 19.8653 19.7905 19.7065 19.6397 19.6442 19.8126 
20.5621 20.1399 19.9235 19.8391 19.8283 19.8512 19.8841 19.9149 19.9391 19.9562 19.9677 19.9754 19.9812 19.9861 19.9909 19.9961 20.0015 20.0073 20.0131 20.0187 20.0241 20.0289 20.033 20.0364 20.0389 20.0404 20.0411 20.0407 20.0394 20.0373 20.0343 20.0306 20.0263 20.0217 20.017 20.0125 20.0084 20.0049 20.0018 19.9984 19.9931 19.9829 19.9634 19.929 19.8739 19.7951 19.6977 19.6033 19.5613 19.6613 
20.6845 20.2393 19.9938 19.8842 19.8556 19.8681 19.896 19.9254 19.95 19.9683 19.9809 19.9894 19.9953 19.9999 20.0039 20.0077 20.0115 20.0152 20.0188 20.0221 20.025 20.0273 20.029 20.03 20.0303 20.0299 20.0288 20.027 20.0246 20.0217 20.0184 20.0147 20.0109 20.0071 20.0035 20.0005 19.9984 19.9972 19.9969 19.9969 19.9955 19.9898 19.975 19.9446 19.8913 19.8096 19.7003 19.5796 19.4908 19.5182 
20.7902 20.333 20.0644 19.9317 19.8853 19.8859 19.907 19.9333 19.9569 19.9751 19.988 19.9966 20.0023 20.0063 20.0093 20.0119 20.0143 20.0165 20.0185 20.0202 20.0215 20.0223 20.0226 20.0224 20.0216 20.0204 20.0186 20.0165 20.014 20.0113 20.0083 20.0053 20.0023 19.9995 19.9972 19.9956 19.9951 19.9957 19.9976 20.0002 20.002 20.0001 19.9896 19.9633 19.9128 19.8297 19.711 19.5668 19.4331 19.3871 
20.8763 20.4182 20.1325 19.9795 19.9156 19.9036 19.9169 19.9387 19.9603 19.9778 19.9905 19.9989 20.0044 20.0078 20.0102 20.0119 20.0133 20.0145 20.0155 20.0162 20.0166 20.0167 20.0164 20.0157 20.0146 20.0132 20.0114 20.0095 20.0073 20.0051 20.0028 20.0005 19.9984 19.9966 19.9952 19.9947 19.9952 19.9972 20.0005 20.005 20.0093 20.0106 20.0041 19.9823 19.9355 19.8532 19.728 19.564 19.389 19.271 
20.9409 20.4925 20.1964 20.0262 19.9459 19.9211 19.9258 19.9426 19.9615 19.9777 19.9899 19.9982 20.0035 20.0067 20.0086 20.0099 20.0107 20.0114 20.0118 20.0121 20.0121 20.0118 20.0113 20.0106 20.0095 20.0083 20.0069 20.0053 20.0036 20.002 20.0003 19.9987 19.9973 19.9961 19.9955 19.9956 19.9967 19.9994 20.0036 20.0094 20.0155 20.0197 20.0171 20.0001 19.9582 19.8787 19.7505 19.5711 19.3594 19.1729 
20.9823 20.5543 20.2545 20.0711 19.9759 19.9388 19.9346 19.9458 19.9615 19.9763 19.9878 19.9959 20.0012 20.0043 20.0061 20.0071 20.0077 20.0081 20.0084 20.0085 20.0084 20.0081 20.0077 20.0071 20.0062 20.0053 20.0042 20.0031 20.0019 20.0007 19.9995 19.9984 19.9975 19.9968 19.9965 19.9969 19.9983 20.0012 20.0059 20.0125 20.0201 20.0267 20.0279 20.0162 19.9802 19.9057 19.7778 19.5878 19.3452 19.0952 
20.9995 20.6022 20.3058 20.1133 20.0056 19.9568 19.9438 19.9491 19.9613 19.9743 19.9852 19.9931 19.9983 20.0015 20.0034 20.0044 20.005 20.0054 20.0056 20.0057 20.0057 20.0055 20.0052 20.0048 20.0043 20.0036 20.0029 20.0021 20.0013 20.0004 19.9996 19.9989 19.9982 19.9977 19.9976 19.998 19.9995 20.0024 20.0072 20.0141 20.0229 20.0317 20.0367 20.0304 20.0013 19.9338 19.8096 19.6139 19.3468 19.0397 
20.9921 20.635 20.3492 20.1523 20.0345 19.9753 19.9537 19.953 19.9616 19.9726 19.9826 19.9903 19.9956 19.999 20.001 20.0021 20.0028 20.0032 20.0035 20.0037 20.0037 20.0037 20.0036 20.0034 20.0031 20.0027 20.0022 20.0017 20.0011 20.0005 20 19.9994 19.9989 19.9985 19.9983 19.9987 19.9999 20.0026 20.0073 20.0145 20.0241 20.0349 20.0434 20.0427 20.0214 19.9626 19.8453 19.6491 19.3641 19.0079 
20.9603 20.6521 20.3839 20.1872 20.0622 19.994 19.9645 19.9579 19.9627 19.9715 19.9805 19.9879 19.9932 19.9967 19.9989 20.0002 20.0011 20.0016 20.002 20.0022 20.0024 20.0025 20.0026 20.0025 20.0024 20.0021 20.0018 20.0015 20.0011 20.0007 20.0003 19.9998 19.9993 19.9989 19.9987 19.9988 19.9998 20.0021 20.0065 20.0137 20.0239 20.0363 20.0483 20.0533 20.0403 19.9918 19.8845 19.6926 19.397 19.0005 
20.9048 20.6531 20.409 20.2175 20.0883 20.0128 19.976 19.9637 19.9646 19.9712 19.979 19.9859 19.9912 19.9949 19.9973 19.9988 19.9997 20.0004 20.0009 20.0012 20.0015 20.0017 20.0019 20.0019 20.0019 20.0018 20.0016 20.0014 20.0011 20.0008 20.0004 20 19.9995 19.999 19.9987 19.9986 19.9992 20.0011 20.0051 20.0121 20.0226 20.0364 20.0515 20.0622 20.0578 20.0208 19.9262 19.7435 19.4446 19.0177 
20.8271 20.638 20.4239 20.2423 20.1122 20.0312 19.9882 19.9705 19.9676 19.9717 19.9782 19.9845 19.9897 19.9934 19.996 19.9977 19.9988 19.9995 20.0001 20.0005 20.0008 20.0011 20.0013 20.0014 20.0015 20.0014 20.0013 20.0012 20.001 20.0007 20.0004 20 19.9995 19.9989 19.9984 19.998 19.9983 19.9997 20.0032 20.0098 20.0204 20.0353 20.0531 20.0692 20.0737 20.0492 19.9695 19.8006 19.5059 19.0591 
20.729 20.6072 20.4285 20.2612 20.1333 20.0489 20.0007 19.9781 19.9714 19.973 19.978 19.9837 19.9886 19.9923 19.995 19.9968 19.998 19.9988 19.9994 19.9999 20.0003 20.0006 20.0008 20.001 20.0011 20.0011 20.001 20.0009 20.0007 20.0005 20.0002 19.9998 19.9993 19.9986 19.9979 19.9973 19.9972 19.9982 20.0011 20.0071 20.0176 20.0332 20.0534 20.0744 20.0876 20.0762 20.0136 19.8625 19.5792 19.1237 
20.6129 20.5614 20.4225 20.2737 20.1512 20.0654 20.0131 19.9862 19.9759 19.975 19.9785 19.9833 19.9879 19.9915 19.9942 19.9961 19.9974 19.9983 19.999 19.9995 19.9999 20.0002 20.0005 20.0006 20.0007 20.0008 20.0007 20.0006 20.0005 20.0002 19.9999 19.9995 19.999 19.9982 19.9974 19.9966 19.9961 19.9965 19.9988 20.0042 20.0142 20.0301 20.0522 20.0777 20.0993 20.1013 20.0573 19.9279 19.663 19.2098 
20.4818 20.5018 20.4061 20.2794 20.1653 20.0803 20.0253 19.9947 19.9811 19.9777 19.9795 19.9834 19.9875 19.991 19.9937 19.9956 19.997 19.9979 19.9986 19.9991 19.9995 19.9999 20.0001 20.0003 20.0004 20.0004 20.0004 20.0003 20.0002 20 19.9997 19.9992 19.9986 19.9979 19.9969 19.9958 19.995 19.9948 19.9964 20.001 20.0104 20.0263 20.0497 20.0791 20.1085 20.1239 20.0995 19.9949 19.755 19.3155 
20.3387 20.4299 20.3797 20.2782 20.1754 20.0932 20.0368 20.0034 19.9867 19.9809 19.981 19.9839 19.9874 19.9907 19.9933 19.9953 19.9967 19.9976 19.9984 19.9989 19.9993 19.9996 19.9998 20 20.0001 20.0002 20.0001 20.0001 19.9999 19.9997 19.9994 19.9989 19.9983 19.9975 19.9964 19.9951 19.9939 19.9933 19.9941 19.9978 20.0063 20.0217 20.0459 20.0785 20.1151 20.1434 20.1393 20.0621 19.8531 19.4379 
20.1874 20.3473 20.3439 20.2701 20.1811 20.1037 20.0474 20.0119 19.9926 19.9845 19.983 19.9848 19.9877 19.9907 19.9932 19.9951 19.9965 19.9975 19.9982 19.9987 19.9991 19.9994 19.9996 19.9998 19.9999 20 19.9999 19.9999 19.9997 19.9995 19.9992 19.9987 19.9981 19.9972 19.996 19.9946 19.993 19.9918 19.9919 19.9946 20.002 20.0166 20.0409 20.0759 20.1187 20.1594 20.1757 20.1278 19.9547 19.5742 
20.0314 20.2562 20.2996 20.2554 20.1823 20.1117 20.0568 20.02 19.9987 19.9885 19.9854 19.986 19.9882 19.9908 19.9932 19.995 19.9964 19.9974 19.9981 19.9986 19.999 19.9993 19.9995 19.9997 19.9998 19.9998 19.9998 19.9997 19.9996 19.9993 19.999 19.9985 19.9979 19.997 19.9957 19.9941 19.9922 19.9906 19.9898 19.9914 19.9976 20.011 20.0349 20.0713 20.1194 20.1714 20.2076 20.1903 20.0575 19.721 
19.8747 20.1588 20.2479 20.2343 20.1789 20.1169 20.0647 20.0276 20.0047 19.9928 19.9881 19.9875 19.989 19.9912 19.9933 19.9951 19.9964 19.9974 19.9981 19.9986 19.999 19.9993 19.9995 19.9997 19.9998 19.9998 19.9998 19.9997 19.9995 19.9993 19.9989 19.9985 19.9978 19.9968 19.9955 19.9938 19.9917 19.9895 19.988 19.9885 19.9932 20.0051 20.028 20.065 20.1171 20.1791 20.2345 20.248 20.1588 19.8747 
19.721 20.0574 20.1901 20.2075 20.1712 20.1191 20.071 20.0345 20.0106 19.9971 19.991 19.9893 19.9901 19.9918 19.9936 19.9952 19.9965 19.9975 19.9982 19.9987 19.9991 19.9994 19.9996 19.9997 19.9998 19.9998 19.9998 19.9997 19.9995 19.9993 19.999 19.9985 19.9978 19.9968 19.9955 19.9936 19.9913 19.9887 19.9864 19.9858 19.9889 19.9991 20.0203 20.0571 20.1119 20.1825 20.2555 20.2997 20.2563 20.0314 
19.5742 19.9547 20.1276 20.1755 20.1592 20.1184 20.0755 20.0405 20.0162 20.0015 19.994 19.9913 19.9913 19.9925 19.994 19.9955 19.9967 19.9976 19.9983 19.9988 19.9992 19.9995 19.9997 19.9999 20 20 19.9999 19.9998 19.9997 19.9994 19.9991 19.9986 19.9979 19.9969 19.9955 19.9936 19.9911 19.9881 19.9852 19.9834 19.9849 19.993 20.0122 20.0477 20.104 20.1812 20.2703 20.344 20.3474 20.1874 
19.4379 19.853 20.062 20.1391 20.1432 20.1147 20.0781 20.0454 20.0213 20.0057 19.9972 19.9935 19.9927 19.9933 19.9946 19.9959 19.997 19.9978 19.9985 19.999 19.9994 19.9997 19.9999 20.0001 20.0002 20.0002 20.0002 20 19.9999 19.9996 19.9992 19.9988 19.9981 19.9971 19.9958 19.9938 19.9912 19.9879 19.9843 19.9815 19.9813 19.9871 20.0037 20.0371 20.0934 20.1756 20.2783 20.3798 20.4299 20.3387 
19.3155 19.7549 19.9948 20.0993 20.1237 20.1082 20.0787 20.0492 20.0258 20.0098 20.0004 19.9958 19.9942 19.9943 19.9952 19.9963 19.9973 19.9981 19.9987 19.9992 19.9996 19.9999 20.0001 20.0003 20.0004 20.0004 20.0004 20.0003 20.0001 19.9999 19.9995 19.9991 19.9984 19.9975 19.9961 19.9942 19.9915 19.988 19.9839 19.98 19.9781 19.9815 19.9951 20.0256 20.0805 20.1655 20.2795 20.4062 20.5019 20.4818 
19.2098 19.6629 19.9277 20.0571 20.101 20.0989 20.0773 20.0517 20.0296 20.0136 20.0035 19.9981 19.9958 19.9953 19.9958 19.9967 19.9975 19.9983 19.9989 19.9994 19.9998 20.0001 20.0003 20.0005 20.0006 20.0007 20.0007 20.0006 20.0005 20.0002 19.9999 19.9994 19.9988 19.998 19.9967 19.9948 19.9921 19.9884 19.9839 19.9791 19.9755 19.9764 19.9867 20.0135 20.0657 20.1514 20.2739 20.4226 20.5615 20.6129 
19.1237 19.5792 19.8624 20.0134 20.0759 20.0872 20.074 20.0528 20.0326 20.0169 20.0064 20.0003 19.9973 19.9964 19.9965 19.997 19.9978 19.9984 19.999 19.9995 19.9999 20.0002 20.0005 20.0007 20.0009 20.001 20.001 20.001 20.0009 20.0007 20.0004 20 19.9994 19.9986 19.9975 19.9957 19.9931 19.9893 19.9844 19.9787 19.9736 19.972 19.9786 20.0011 20.0493 20.1337 20.2614 20.4287 20.6073 20.729 
19.0591 19.5058 19.8004 19.9693 20.0488 20.0732 20.0687 20.0525 20.0346 20.0196 20.0089 20.0023 19.9987 19.9972 19.9969 19.9973 19.9978 19.9984 19.999 19.9994 19.9999 20.0002 20.0006 20.0009 20.0011 20.0013 20.0014 20.0014 20.0014 20.0012 20.001 20.0007 20.0002 19.9995 19.9985 19.9969 19.9943 19.9906 19.9854 19.9791 19.9725 19.9683 19.9712 19.9888 20.0317 20.1126 20.2426 20.4241 20.6381 20.8271 
19.0177 19.4445 19.7432 19.9258 20.0203 20.0572 20.0614 20.0506 20.0355 20.0215 20.0109 20.0039 19.9998 19.9978 19.9972 19.9972 19.9976 19.9981 19.9987 19.9992 19.9997 20.0001 20.0006 20.001 20.0013 20.0016 20.0019 20.002 20.0021 20.002 20.0019 20.0017 20.0013 20.0008 19.9999 19.9984 19.9961 19.9924 19.9871 19.9801 19.9722 19.9656 19.9645 19.9767 20.0133 20.0888 20.2178 20.4092 20.6532 20.9048 
19.0005 19.3968 19.6922 19.8839 19.9911 20.0394 20.0523 20.0471 20.035 20.0224 20.0121 20.0049 20.0004 19.998 19.997 19.9968 19.9971 19.9976 19.9981 19.9987 19.9993 20 20.0006 20.0011 20.0017 20.0022 20.0026 20.0029 20.0031 20.0032 20.0032 20.0031 20.0029 20.0025 20.0017 20.0004 19.9983 19.9947 19.9893 19.9819 19.9728 19.9637 19.9588 19.9652 19.9946 20.0626 20.1875 20.384 20.6522 20.9603 
19.0079 19.3638 19.6485 19.8445 19.9615 20.0201 20.0412 20.0416 20.033 20.022 20.0123 20.005 20.0002 19.9975 19.9963 19.9959 19.9962 19.9967 19.9974 19.9982 19.999 19.9998 20.0007 20.0015 20.0023 20.0031 20.0037 20.0043 20.0047 20.005 20.0051 20.0051 20.005 20.0047 20.0041 20.0029 20.0009 19.9975 19.992 19.9842 19.974 19.9627 19.9539 19.9544 19.9757 20.0348 20.1525 20.3493 20.635 20.9921 
19.0397 19.3463 19.6129 19.8081 19.932 19.9992 20.0279 20.034 20.0289 20.0199 20.0111 20.004 19.9992 19.9963 19.995 19.9946 19.9949 19.9957 19.9966 19.9977 19.9989 20.0001 20.0013 20.0025 20.0037 20.0048 20.0057 20.0065 20.0071 20.0076 20.0078 20.0079 20.0078 20.0075 20.007 20.0058 20.0039 20.0005 19.995 19.9868 19.9756 19.9623 19.9496 19.9441 19.9569 20.0055 20.1132 20.3057 20.6021 20.9995 
19.0952 19.3444 19.5862 19.7755 19.9028 19.9769 20.0125 20.024 20.0226 20.0159 20.0083 20.0018 19.9972 19.9945 19.9933 19.9932 19.9938 19.9949 19.9963 19.9979 19.9996 20.0013 20.0031 20.0047 20.0063 20.0078 20.009 20.01 20.0108 20.0113 20.0115 20.0115 20.0113 20.0109 20.0101 20.0088 20.0067 20.0032 19.9976 19.989 19.9769 19.9617 19.9455 19.934 19.938 19.9751 20.0702 20.2539 20.554 20.9823 
19.1729 19.3582 19.5686 19.747 19.8743 19.9532 19.9947 20.0114 20.0139 20.0099 20.0039 19.9985 19.9946 19.9924 19.9918 19.9922 19.9935 19.9953 19.9974 19.9997 20.0021 20.0045 20.0068 20.0089 20.0109 20.0126 20.0141 20.0151 20.0158 20.0162 20.0161 20.0158 20.0151 20.0142 20.0129 20.0111 20.0086 20.0048 19.9989 19.9899 19.977 19.9601 19.9407 19.9236 19.9188 19.9437 20.0243 20.195 20.4918 20.9409 
19.271 19.3872 19.5605 19.723 19.847 19.9286 19.9749 19.9966 20.0032 20.0023 19.9986 19.9949 19.9923 19.9913 19.9917 19.9932 19.9954 19.9982 20.0013 20.0045 20.0076 20.0107 20.0135 20.016 20.0182 20.0199 20.0211 20.0219 20.0221 20.0218 20.021 20.0198 20.0182 20.0162 20.014 20.0114 20.0081 20.0037 19.9973 19.9879 19.9744 19.9562 19.9342 19.9121 19.899 19.9114 19.9762 20.1302 20.417 20.8763 
19.3871 19.4307 19.5622 19.7046 19.8219 19.9041 19.9543 19.9807 19.9918 19.9947 19.9941 19.9928 19.9924 19.9931 19.9951 19.9981 20.0018 20.0058 20.0099 20.0139 20.0177 20.0211 20.0241 20.0265 20.0283 20.0294 20.0298 20.0295 20.0285 20.0268 20.0245 20.0217 20.0185 20.015 20.0113 20.0074 20.0031 19.9978 19.9909 19.9812 19.9675 19.9487 19.9248 19.8988 19.8783 19.8788 19.9268 20.0611 20.3314 20.7902 
19.5182 19.4881 19.5745 19.6931 19.8009 19.882 19.9353 19.9664 19.9825 19.99 19.9934 19.9955 19.998 20.0012 20.0054 20.0102 20.0153 20.0205 20.0254 20.0298 20.0337 20.0367 20.039 20.0403 20.0406 20.04 20.0385 20.0359 20.0326 20.0284 20.0237 20.0184 20.0129 20.0072 20.0016 19.996 19.9905 19.9845 19.9774 19.968 19.9548 19.9364 19.9122 19.8839 19.8576 19.8473 19.8783 19.9902 20.2377 20.6845 
19.6613 19.5592 19.5992 19.6919 19.7883 19.8668 19.9227 19.9587 19.9804 19.9933 20.0016 20.0081 20.014 20.0202 20.0266 20.033 20.0391 20.0447 20.0494 20.0531 20.0556 20.0568 20.0566 20.0551 20.0523 20.0482 20.043 20.0367 20.0296 20.0217 20.0134 20.0048 19.9963 19.9882 19.9805 19.9736 19.9673 19.9613 19.9549 19.947 19.9359 19.9198 19.8974 19.8692 19.8396 19.8203 19.8347 19.9218 20.1396 20.5621 
19.8126 19.6445 19.64 19.7067 19.7909 19.8664 19.9247 19.9658 19.9936 20.0126 20.0263 20.0372 20.0466 20.0552 20.063 20.0699 20.0754 20.0795 20.0819 20.0824 20.0809 20.0776 20.0724 20.0655 20.057 20.0471 20.0361 20.0243 20.0118 19.9991 19.9865 19.9743 19.9629 19.9527 19.9439 19.9367 19.9312 19.927 19.9235 19.9195 19.9131 19.9023 19.8849 19.8602 19.8305 19.8049 19.8034 19.863 20.0429 20.4258 
19.9686 19.7461 19.7033 19.747 19.82 19.8927 19.9533 19.9994 20.0331 20.0577 20.0762 20.0905 20.1019 20.1108 20.1174 20.1216 20.1232 20.1221 20.1182 20.1115 20.1022 20.0904 20.0765 20.0607 20.0435 20.0252 20.0063 19.9873 19.9686 19.9508 19.9342 19.9193 19.9066 19.8964 19.889 19.8846 19.8832 19.8845 19.8877 19.8914 19.8939 19.8925 19.8845 19.8677 19.8423 19.8137 19.7974 19.8258 19.9565 20.279 
20.1253 19.8685 19.8001 19.8272 19.8918 19.9623 20.0245 20.0742 20.1119 20.1397 20.1598 20.1738 20.1828 20.1872 20.1873 20.1831 20.1748 20.1624 20.1462 20.1265 20.1038 20.0786 20.0515 20.0232 19.9943 19.9656 19.9378 19.9115 19.8874 19.8661 19.8482 19.8341 19.8242 19.8189 19.8183 19.8224 19.831 19.8437 19.8595 19.8769 19.8937 19.9072 19.9138 19.9101 19.8939 19.8664 19.8368 19.8293 19.8947 20.1253 
20.279 20.0205 19.9466 19.9677 20.0275 20.0952 20.1561 20.2049 20.2411 20.2657 20.2803 20.2861 20.2842 20.2752 20.2596 20.2378 20.2105 20.1781 20.1415 20.1016 20.0592 20.0153 19.9712 19.9278 19.8862 19.8474 19.8124 19.782 19.757 19.738 19.7255 19.7198 19.7212 19.7296 19.7448 19.7666 19.7943 19.827 19.8633 19.9016 19.9393 19.9733 19.9997 20.014 20.0117 19.9899 19.9497 19.9022 19.8813 19.9686 
20.4258 20.2169 20.1661 20.193 20.2499 20.3105 20.3622 20.4001 20.423 20.4317 20.4273 20.4111 20.3842 20.3477 20.3028 20.2506 20.1923 20.1295 20.0636 19.9961 19.9289 19.8634 19.8013 19.7441 19.6932 19.6499 19.6152 19.59 19.5749 19.5703 19.5764 19.5929 19.6195 19.6556 19.7003 19.7526 19.8111 19.8742 19.94 20.0063 20.0702 20.1285 20.1771 20.2114 20.2256 20.2135 20.1683 20.0835 19.9584 19.8126 
20.5621 20.4846 20.4875 20.5276 20.5758 20.6165 20.642 20.6494 20.6384 20.6096 20.5646 20.5051 20.4327 20.3497 20.2581 20.1602 20.0584 19.9553 19.8533 19.755 19.6627 19.5788 19.5052 19.4439 19.3962 19.3634 19.3463 19.3453 19.3604 19.3913 19.4372 19.4969 19.5691 19.652 19.7435 19.8414 19.9433 20.0466 20.1485 20.2463 20.3368 20.4169 20.4831 20.5315 20.5575 20.555 20.5142 20.4152 20.2094 19.6613 
20.6845 20.8763 20.9409 20.9823 20.9995 20.9921 20.9603 20.9048 20.8271 20.729 20.6129 20.4818 20.3387 20.1874 20.0314 19.8747 19.721 19.5742 19.4379 19.3155 19.2098 19.1237 19.0591 19.0177 19.0005 19.0079 19.0397 19.0952 19.1729 19.271 19.3871 19.5182 19.6613 19.8126 19.9686 20.1253 20.279 20.4258 20.5621 20.6845 20.7902 20.8763 20.9409 20.9823 20.9995 20.9921 20.9603 20.9048 20.8271 19.5182 
