# vtk DataFile Version 3.0
Temperature distribution on a 2D grid
ASCII

DATASET STRUCTURED_POINTS
DIMENSIONS 50 50 1
ORIGIN 0.0 0.0 0.0
SPACING 0.01 0.01 1.0

POINT_DATA 2500
SCALARS temperature double
LOOKUP_TABLE default
19.0005 20.9921 20.9603 20.9048 20.8271 20.729 20.6129 20.4818 20.3387 20.1874 20.0314 19.8747 19.721 19.5742 19.4379 19.3155 19.2098 19.1237 19.0591 19.0177 19.0005 19.0079 19.0397 19.0952 19.1729 19.271 19.3871 19.5182 19.6613 19.8126 19.9686 20.1253 20.279 20.4258 20.5621 20.6845 20.7902 20.8763 20.9409 20.9823 20.9995 20.9921 20.9603 20.9048 20.8271 20.729 20.6129 20.4818 20.3387 20.0314 
19.0177 19.96 20.241 20.3249 20.3182 20.2644 20.1845 20.0901 19.9888 19.8856 19.7847 19.6891 19.6015 19.524 19.4585 19.4067 19.3695 19.348 19.3426 19.3534 19.3802 19.4222 19.4784 19.5475 19.6277 19.7171 19.8134 19.9143 20.0174 20.12 20.2196 20.3139 20.4004 20.4771 20.5421 20.5939 20.6311 20.6529 20.6588 20.6485 20.6219 20.5791 20.5201 20.4449 20.3536 20.2472 20.1293 20.0103 19.9134 19.8747 
19.0591 19.556 19.8319 19.9647 20.0085 19.9993 19.9598 19.9047 19.8435 19.7824 19.7254 19.6751 19.6335 19.6015 19.5799 19.5691 19.5692 19.5801 19.6014 19.6326 19.6728 19.7211 19.7763 19.8369 19.9016 19.9687 20.0366 20.1036 20.168 20.2283 20.2829 20.3306 20.3702 20.4007 20.4214 20.4319 20.432 20.4218 20.4014 20.3713 20.3315 20.2819 20.2217 20.1495 20.0634 19.9628 19.8512 19.7428 19.6739 19.721 
19.1237 19.4057 19.6302 19.7738 19.8485 19.8741 19.8688 19.8464 19.8167 19.7864 19.7595 19.7385 19.7246 19.7183 19.7198 19.7287 19.7448 19.7674 19.7959 19.8295 19.8673 19.9083 19.9516 19.9961 20.0407 20.0843 20.1258 20.1642 20.1986 20.228 20.2519 20.2695 20.2806 20.2848 20.2821 20.2727 20.2569 20.2352 20.2082 20.1763 20.1396 20.0972 20.0474 19.9872 19.9127 19.8208 19.713 19.6031 19.5297 19.5742 
19.2098 19.3697 19.5479 19.6894 19.782 19.8323 19.8523 19.8538 19.8461 19.8358 19.827 19.8222 19.8224 19.828 19.8387 19.8542 19.8737 19.8967 19.9224 19.9501 19.979 20.0085 20.0377 20.066 20.0927 20.1171 20.1386 20.1567 20.1709 20.181 20.1865 20.1875 20.1839 20.1758 20.1635 20.1475 20.1284 20.1067 20.083 20.0577 20.0306 20.0004 19.9643 19.918 19.8553 19.7706 19.6619 19.5398 19.4395 19.4379 
19.3155 19.3902 19.5293 19.6633 19.7652 19.8315 19.8689 19.8864 19.8927 19.894 19.8947 19.8973 19.903 19.912 19.9241 19.9389 19.9558 19.9741 19.9933 20.0127 20.0319 20.0502 20.0674 20.0829 20.0963 20.1073 20.1157 20.1213 20.1239 20.1234 20.1198 20.1134 20.1041 20.0924 20.0785 20.0631 20.0466 20.0298 20.0132 19.9969 19.9806 19.9627 19.9396 19.9057 19.8532 19.7734 19.6609 19.521 19.3827 19.3155 
19.4379 19.4414 19.5435 19.6655 19.7699 19.8454 19.8937 19.9214 19.9359 19.9434 19.9482 19.9531 19.9593 19.9674 19.9773 19.9885 20.0006 20.0131 20.0254 20.0373 20.0483 20.0582 20.0665 20.0733 20.0782 20.0812 20.0822 20.0812 20.0782 20.0732 20.0664 20.058 20.0482 20.0372 20.0255 20.0136 20.002 19.9912 19.9818 19.9739 19.9671 19.9594 19.9469 19.9233 19.8791 19.8033 19.6864 19.5279 19.349 19.2098 
19.5742 19.5108 19.5747 19.6798 19.781 19.8602 19.9146 19.9483 19.9675 19.978 19.9841 19.9888 19.9935 19.9991 20.0055 20.0126 20.02 20.0273 20.0342 20.0404 20.0456 20.0498 20.0527 20.0543 20.0545 20.0534 20.051 20.0473 20.0425 20.0366 20.0298 20.0222 20.0141 20.0057 19.9974 19.9895 19.9825 19.977 19.9735 19.9721 19.9724 19.9724 19.9683 19.9529 19.916 19.8443 19.7245 19.55 19.3334 19.1237 
19.721 19.5924 19.6153 19.699 19.7921 19.8706 19.9276 19.9646 19.9864 19.9982 20.0045 20.0081 20.011 20.0139 20.0172 20.0208 20.0245 20.028 20.0311 20.0335 20.0352 20.0361 20.036 20.0351 20.0333 20.0307 20.0273 20.0232 20.0186 20.0135 20.008 20.0024 19.9966 19.991 19.9857 19.9812 19.9778 19.9762 19.9767 19.9798 19.9849 19.9905 19.9926 19.9843 19.9543 19.8877 19.7679 19.5821 19.3337 19.0591 
19.8747 19.6827 19.6624 19.7208 19.8016 19.876 19.933 19.9715 19.9947 20.0074 20.0135 20.0162 20.0175 20.0183 20.0193 20.0204 20.0216 20.0227 20.0234 20.0238 20.0236 20.0229 20.0217 20.0198 20.0175 20.0148 20.0117 20.0083 20.0047 20.001 19.9972 19.9934 19.9898 19.9864 19.9835 19.9814 19.9804 19.9811 19.9841 19.9898 19.998 20.0073 20.0144 20.0122 19.9893 19.9296 19.8132 19.6217 19.3489 19.0177 
20.0314 19.7792 19.7148 19.745 19.8104 19.8779 19.9329 19.9716 19.9958 20.0091 20.0153 20.0175 20.0177 20.0173 20.0168 20.0164 20.0161 20.0158 20.0154 20.0148 20.0139 20.0127 20.0112 20.0094 20.0074 20.0052 20.0029 20.0005 19.998 19.9957 19.9933 19.9911 19.9891 19.9873 19.9859 19.9852 19.9855 19.9874 19.9915 19.9984 20.0084 20.0203 20.0313 20.0348 20.0196 19.9684 19.859 19.6676 19.3786 19.0005 
20.1874 19.88 19.7719 19.7723 19.8199 19.8784 19.9298 19.9678 19.9925 20.0064 20.013 20.0152 20.0151 20.0141 20.0128 20.0116 20.0106 20.0098 20.0089 20.008 20.007 20.0059 20.0046 20.0032 20.0018 20.0003 19.9987 19.9973 19.9959 19.9945 19.9933 19.9921 19.9911 19.9902 19.9897 19.9896 19.9904 19.9926 19.997 20.0044 20.0151 20.0288 20.0431 20.0521 20.0449 20.004 19.905 19.7193 19.4223 19.0079 
20.3387 19.983 19.8331 19.8032 19.8314 19.8793 19.9258 19.9624 19.9871 20.0017 20.009 20.0116 20.0116 20.0104 20.009 20.0075 20.0063 20.0053 20.0044 20.0035 20.0027 20.0019 20.001 20.0001 19.9992 19.9983 19.9975 19.9967 19.996 19.9954 19.9949 19.9943 19.9939 19.9935 19.9932 19.9933 19.9941 19.9961 20.0003 20.0074 20.0184 20.0333 20.0504 20.0646 20.0658 20.0365 19.9509 19.7762 19.4794 19.0397 
20.4818 20.0859 19.8977 19.8377 19.8458 19.8818 19.9224 19.9568 19.9813 19.9965 20.0045 20.0078 20.0082 20.0073 20.0059 20.0045 20.0033 20.0024 20.0016 20.001 20.0004 19.9999 19.9994 19.9989 19.9985 19.9981 19.9977 19.9974 19.9972 19.997 19.9968 19.9966 19.9964 19.9962 19.9959 19.9959 19.9963 19.9979 20.0015 20.0082 20.019 20.0346 20.054 20.0732 20.0829 20.0662 19.9964 19.8376 19.5487 19.0952 
20.6129 20.1866 19.9644 19.8758 19.8635 19.8867 19.9206 19.952 19.9758 19.9915 20.0003 20.0043 20.0054 20.0049 20.0038 20.0026 20.0016 20.0008 20.0002 19.9998 19.9994 19.9992 19.999 19.9988 19.9987 19.9986 19.9985 19.9985 19.9985 19.9985 19.9985 19.9984 19.9983 19.998 19.9977 19.9974 19.9974 19.9984 20.0013 20.0072 20.0176 20.0336 20.0549 20.0787 20.0967 20.0931 20.0412 19.9023 19.6288 19.1729 
20.729 20.2826 20.0318 19.9169 19.8844 19.8944 19.9207 19.9485 19.9713 19.9871 19.9966 20.0014 20.0032 20.0032 20.0025 20.0015 20.0007 20 19.9996 19.9994 19.9992 19.9992 19.9992 19.9992 19.9992 19.9993 19.9994 19.9995 19.9996 19.9997 19.9997 19.9997 19.9995 19.9991 19.9986 19.998 19.9976 19.998 20.0001 20.0052 20.0149 20.0309 20.0537 20.0815 20.1076 20.1173 20.0845 19.9691 19.7179 19.271 
20.8271 20.3716 20.0985 19.96 19.9083 19.9048 19.9229 19.9466 19.9678 19.9834 19.9935 19.999 20.0014 20.002 20.0016 20.001 20.0003 19.9998 19.9995 19.9994 19.9993 19.9994 19.9995 19.9996 19.9998 19.9999 20 20.0002 20.0003 20.0004 20.0004 20.0004 20.0001 19.9997 19.999 19.9982 19.9974 19.9972 19.9984 20.0026 20.0115 20.0271 20.0508 20.082 20.1155 20.1383 20.1256 20.0366 19.8139 19.3871 
20.9048 20.4515 20.1628 20.0041 19.9345 19.9177 19.9273 19.9462 19.9653 19.9805 19.9908 19.9969 20 20.0011 20.0011 20.0007 20.0002 19.9998 19.9996 19.9995 19.9996 19.9997 19.9998 20 20.0001 20.0003 20.0004 20.0006 20.0007 20.0008 20.0008 20.0007 20.0004 19.9999 19.9991 19.998 19.9969 19.9961 19.9966 19.9998 20.0076 20.0226 20.0467 20.0805 20.1206 20.156 20.1635 20.1031 19.9145 19.5182 
20.9603 20.5203 20.2232 20.0483 19.9624 19.9328 19.9336 19.9474 19.964 19.9783 19.9887 19.9952 19.9988 20.0003 20.0007 20.0005 20.0002 19.9999 19.9998 19.9997 19.9998 19.9999 20 20.0002 20.0003 20.0005 20.0006 20.0007 20.0008 20.0009 20.0009 20.0008 20.0005 19.9999 19.999 19.9978 19.9964 19.9951 19.9948 19.997 20.0036 20.0175 20.0414 20.0771 20.1228 20.1699 20.1976 20.1672 20.0172 19.6613 
20.9921 20.5764 20.2781 20.0913 19.9914 19.9496 19.9417 19.95 19.9636 19.9767 19.9869 19.9937 19.9977 19.9996 20.0003 20.0004 20.0002 20 19.9999 19.9998 19.9999 20 20.0001 20.0003 20.0004 20.0005 20.0006 20.0007 20.0008 20.0009 20.0008 20.0007 20.0004 19.9998 19.9989 19.9976 19.9959 19.9942 19.9933 19.9943 19.9996 20.0121 20.0353 20.0719 20.1221 20.1797 20.2268 20.2272 20.1195 19.8126 
20.9995 20.6182 20.3262 20.1321 20.0206 19.9678 19.9513 19.9539 19.9642 19.9758 19.9855 19.9924 19.9967 19.999 20 20.0003 20.0002 20.0001 20 19.9999 19.9999 20 20.0001 20.0003 20.0004 20.0005 20.0006 20.0006 20.0007 20.0007 20.0007 20.0006 20.0003 19.9998 19.9989 19.9975 19.9956 19.9936 19.9919 19.9919 19.9957 20.0066 20.0284 20.065 20.1184 20.1851 20.2505 20.2817 20.2189 19.9686 
20.9823 20.6448 20.3662 20.1697 20.0493 19.9867 19.9621 19.9589 19.9657 19.9754 19.9844 19.9912 19.9957 19.9983 19.9996 20.0001 20.0001 20.0001 20 19.9999 20 20 20.0001 20.0002 20.0003 20.0004 20.0004 20.0005 20.0005 20.0006 20.0006 20.0005 20.0002 19.9997 19.9989 19.9975 19.9955 19.9931 19.9908 19.9897 19.992 20.0009 20.0208 20.0566 20.1119 20.1861 20.2681 20.3293 20.3129 20.1253 
20.9409 20.6556 20.3973 20.2031 20.0768 20.006 19.9738 19.965 19.9681 19.9757 19.9837 19.9903 19.9949 19.9977 19.9992 19.9998 20 20 20 19.9999 19.9999 20 20 20.0001 20.0002 20.0003 20.0003 20.0004 20.0004 20.0004 20.0004 20.0004 20.0002 19.9997 19.9989 19.9976 19.9955 19.9929 19.99 19.9879 19.9885 19.9953 20.0128 20.0468 20.1027 20.1824 20.2791 20.3687 20.3992 20.279 
20.8763 20.6502 20.4185 20.2315 20.1024 20.0251 19.9861 19.9718 19.9712 19.9765 19.9834 19.9895 19.9941 19.997 19.9987 19.9996 19.9999 20 19.9999 19.9999 19.9999 19.9999 20 20.0001 20.0001 20.0002 20.0002 20.0002 20.0003 20.0003 20.0003 20.0003 20.0002 19.9998 19.9991 19.9978 19.9957 19.9928 19.9894 19.9863 19.9853 19.9898 20.0045 20.0359 20.091 20.1744 20.2833 20.3991 20.4757 20.4258 
20.7902 20.6288 20.4295 20.2542 20.1255 20.0435 19.9988 19.9794 19.9749 19.9779 19.9834 19.989 19.9934 19.9965 19.9983 19.9993 19.9997 19.9999 19.9999 19.9999 19.9999 19.9999 20 20 20.0001 20.0001 20.0001 20.0001 20.0002 20.0002 20.0002 20.0002 20.0002 19.9999 19.9992 19.998 19.996 19.993 19.9891 19.9851 19.9825 19.9845 19.9961 20.0241 20.077 20.162 20.2804 20.4197 20.5405 20.5621 
20.6845 20.5919 20.4298 20.2706 20.1454 20.0609 20.0115 19.9874 19.9793 19.9798 19.9839 19.9887 19.9929 19.996 19.9979 19.999 19.9996 19.9998 19.9999 19.9999 19.9999 19.9999 20 20 20 20.0001 20.0001 20.0001 20.0001 20.0001 20.0002 20.0002 20.0002 20 19.9995 19.9983 19.9964 19.9933 19.9891 19.9843 19.9802 19.9797 19.9877 20.0118 20.0612 20.1456 20.2707 20.4299 20.5919 20.6845 
20.5621 20.5404 20.4196 20.2803 20.1618 20.0768 20.0238 19.9957 19.9841 19.9821 19.9847 19.9887 19.9925 19.9955 19.9976 19.9988 19.9995 19.9998 19.9999 19.9999 20 20 20 20 20.0001 20.0001 20.0001 20.0001 20.0001 20.0001 20.0002 20.0002 20.0002 20.0001 19.9997 19.9987 19.9969 19.9938 19.9894 19.9838 19.9782 19.9753 19.9797 19.9991 20.0438 20.1257 20.2543 20.4296 20.6288 20.7902 
20.4258 20.4756 20.399 20.2831 20.1741 20.0907 20.0356 20.0041 19.9894 19.9849 19.9859 19.989 19.9924 19.9952 19.9973 19.9986 19.9994 19.9998 19.9999 20 20 20.0001 20.0001 20.0001 20.0001 20.0001 20.0001 20.0001 20.0001 20.0001 20.0001 20.0002 20.0003 20.0002 19.9999 19.9991 19.9974 19.9944 19.9899 19.9837 19.9768 19.9715 19.9721 19.9864 20.0253 20.1026 20.2316 20.4186 20.6502 20.8763 
20.279 20.3991 20.3686 20.279 20.1822 20.1024 20.0465 20.0124 19.9949 19.9881 19.9874 19.9895 19.9924 19.9951 19.9971 19.9985 19.9993 19.9998 20 20.0001 20.0002 20.0002 20.0002 20.0002 20.0002 20.0002 20.0001 20.0001 20.0001 20.0001 20.0001 20.0002 20.0003 20.0003 20.0001 19.9995 19.998 19.9952 19.9906 19.984 19.976 19.9684 19.9652 19.974 20.0062 20.077 20.2032 20.3974 20.6556 20.9409 
20.1253 20.3128 20.3292 20.268 20.1859 20.1117 20.0563 20.0205 20.0006 19.9916 19.9893 19.9904 19.9927 19.9951 19.997 19.9984 19.9993 19.9999 20.0001 20.0002 20.0003 20.0003 20.0003 20.0003 20.0002 20.0002 20.0002 20.0001 20 20 20 20.0001 20.0002 20.0003 20.0003 19.9998 19.9986 19.996 19.9915 19.9847 19.9757 19.966 19.9592 19.9623 19.9869 20.0495 20.1698 20.3663 20.6449 20.9823 
19.9686 20.2188 20.2816 20.2504 20.185 20.1182 20.0648 20.0281 20.0063 19.9954 19.9915 19.9915 19.9932 19.9952 19.9971 19.9985 19.9994 19.9999 20.0002 20.0004 20.0004 20.0004 20.0004 20.0003 20.0003 20.0002 20.0001 20 20 19.9999 19.9999 20 20.0002 20.0003 20.0004 20.0002 19.9992 19.9969 19.9926 19.9857 19.976 19.9645 19.9542 19.9515 19.968 20.0208 20.1323 20.3263 20.6182 20.9995 
19.8126 20.1194 20.2272 20.2268 20.1796 20.122 20.0717 20.0351 20.0119 19.9994 19.9941 19.9929 19.9939 19.9956 19.9972 19.9985 19.9994 20 20.0003 20.0004 20.0005 20.0004 20.0004 20.0003 20.0002 20.0001 20 19.9999 19.9998 19.9998 19.9998 19.9998 20 20.0003 20.0005 20.0005 19.9998 19.9979 19.9939 19.9872 19.977 19.9639 19.9503 19.942 19.9499 19.9916 20.0915 20.2782 20.5764 20.9921 
19.6613 20.0172 20.1672 20.1976 20.1699 20.1228 20.0771 20.0414 20.0174 20.0035 19.9968 19.9946 19.9948 19.996 19.9974 19.9986 19.9994 20 20.0002 20.0004 20.0004 20.0003 20.0002 20.0001 20 19.9999 19.9998 19.9996 19.9995 19.9995 19.9995 19.9996 19.9999 20.0002 20.0006 20.0008 20.0005 19.999 19.9955 19.989 19.9787 19.9644 19.9478 19.934 19.9332 19.9627 20.0485 20.2234 20.5204 20.9603 
19.5182 19.9145 20.1032 20.1637 20.1561 20.1207 20.0806 20.0467 20.0226 20.0076 19.9997 19.9964 19.9958 19.9965 19.9975 19.9985 19.9993 19.9997 20 20 20 19.9999 19.9998 19.9997 19.9996 19.9995 19.9993 19.9993 19.9992 19.9992 19.9992 19.9994 19.9997 20.0002 20.0008 20.0013 20.0014 20.0004 19.9974 19.9914 19.9811 19.9659 19.9468 19.9278 19.9182 19.9349 20.0045 20.1631 20.4516 20.9048 
19.3871 19.8139 20.0367 20.1257 20.1385 20.1157 20.0822 20.051 20.0271 20.0114 20.0024 19.9981 19.9967 19.9968 19.9974 19.9982 19.9988 19.9991 19.9993 19.9993 19.9993 19.9992 19.9991 19.999 19.9989 19.9988 19.9988 19.9988 19.9988 19.9989 19.9991 19.9994 19.9998 20.0005 20.0013 20.0021 20.0025 20.0021 19.9998 19.9943 19.9843 19.9686 19.9474 19.9237 19.9055 19.9088 19.9604 20.0988 20.3717 20.8271 
19.271 19.718 19.9692 20.0846 20.1174 20.1077 20.0816 20.0537 20.0308 20.0147 20.0048 19.9995 19.9972 19.9967 19.9969 19.9973 19.9977 19.998 19.9981 19.9981 19.9981 19.998 19.998 19.998 19.998 19.9981 19.9983 19.9984 19.9986 19.9989 19.9993 19.9997 20.0004 20.0012 20.0023 20.0034 20.0042 20.0043 20.0027 19.9979 19.9884 19.9725 19.9496 19.9217 19.8952 19.8851 19.9174 20.0322 20.2827 20.729 
19.1729 19.6288 19.9022 20.0411 20.093 20.0965 20.0784 20.0545 20.033 20.0168 20.0062 20 19.9969 19.9957 19.9955 19.9956 19.9959 19.9961 19.9962 19.9963 19.9964 19.9965 19.9967 19.9969 19.9972 19.9976 19.998 19.9985 19.999 19.9996 20.0002 20.0009 20.0018 20.0028 20.0041 20.0055 20.0067 20.0073 20.0062 20.0022 19.9932 19.9774 19.9534 19.9217 19.8876 19.8642 19.8763 19.9646 20.1867 20.6129 
19.0952 19.5485 19.8371 19.9958 20.0653 20.0819 20.072 20.0526 20.0329 20.0171 20.006 19.9991 19.9953 19.9935 19.9929 19.9928 19.993 19.9933 19.9937 19.994 19.9945 19.995 19.9956 19.9962 19.997 19.9979 19.9987 19.9997 20.0006 20.0015 20.0024 20.0034 20.0045 20.0057 20.0071 20.0086 20.01 20.0109 20.0104 20.0069 19.9986 19.9831 19.9581 19.9234 19.8824 19.8461 19.8378 19.8977 20.0859 20.4818 
19.0397 19.4787 19.775 19.949 20.0342 20.0631 20.0616 20.0471 20.0298 20.0146 20.0034 19.9961 19.9918 19.9897 19.9889 19.9889 19.9894 19.99 19.9909 19.9918 19.9929 19.9941 19.9954 19.9968 19.9983 19.9998 20.0013 20.0028 20.0042 20.0055 20.0067 20.0079 20.009 20.0102 20.0115 20.0128 20.0142 20.0151 20.0147 20.0116 20.0038 19.9885 19.9631 19.926 19.8789 19.8308 19.8024 19.8324 19.9826 20.3387 
19.0079 19.4209 19.7166 19.9011 19.9992 20.0394 20.0461 20.0368 20.0224 20.0085 19.9978 19.9905 19.9862 19.9842 19.9838 19.9843 19.9855 19.987 19.9888 19.9908 19.993 19.9952 19.9976 20 20.0024 20.0047 20.0069 20.009 20.0108 20.0123 20.0136 20.0146 20.0155 20.0162 20.017 20.0177 20.0184 20.0188 20.0181 20.015 20.0074 19.9924 19.9668 19.928 19.876 19.8172 19.7698 19.7699 19.8789 20.1874 
19.0005 19.376 19.6627 19.8521 19.9599 20.01 20.0246 20.0208 20.0099 19.9982 19.9887 19.9824 19.979 19.9779 19.9786 19.9805 19.9831 19.9861 19.9895 19.9932 19.9969 20.0006 20.0043 20.0079 20.0113 20.0144 20.0171 20.0194 20.0212 20.0225 20.0233 20.0236 20.0235 20.0231 20.0225 20.0218 20.0211 20.0202 20.0186 20.0149 20.0071 19.9923 19.9669 19.9271 19.8716 19.8042 19.7396 19.7107 19.777 20.0314 
19.0177 19.3447 19.6136 19.802 19.9161 19.9744 19.9966 19.9989 19.9925 19.9841 19.9773 19.9732 19.9719 19.973 19.976 19.9802 19.9852 19.9906 19.9963 20.0021 20.0077 20.0131 20.0182 20.0228 20.0269 20.0303 20.0329 20.0347 20.0356 20.0357 20.0349 20.0333 20.0311 20.0284 20.0254 20.0223 20.0192 20.0162 20.0127 20.0079 19.9996 19.9851 19.9603 19.9208 19.8636 19.79 19.711 19.6554 19.679 19.8747 
19.0591 19.3276 19.5704 19.7517 19.8684 19.9333 19.963 19.9723 19.9719 19.9687 19.9664 19.9664 19.9691 19.974 19.9806 19.9884 19.9968 20.0054 20.0139 20.022 20.0295 20.0363 20.0422 20.047 20.0506 20.053 20.0541 20.0539 20.0523 20.0494 20.0453 20.0402 20.0342 20.0277 20.0209 20.0141 20.0076 20.0016 19.9959 19.9895 19.9808 19.9669 19.9437 19.9062 19.8499 19.7735 19.684 19.6049 19.5872 19.721 
19.1237 19.3255 19.5349 19.7038 19.82 19.8904 19.928 19.9458 19.9536 19.958 19.9627 19.9693 19.9779 19.9885 20.0002 20.0126 20.025 20.0369 20.0479 20.0578 20.0662 20.0729 20.0779 20.0809 20.0819 20.0809 20.0779 20.0729 20.0662 20.0578 20.048 20.0371 20.0254 20.0134 20.0014 19.9899 19.9794 19.9701 19.9621 19.9546 19.9463 19.9344 19.9148 19.882 19.8302 19.7555 19.6603 19.5622 19.5051 19.5742 
19.2098 19.3407 19.512 19.6646 19.7784 19.854 19.9008 19.9293 19.9482 19.9632 19.9778 19.9933 20.01 20.0274 20.0451 20.0621 20.078 20.092 20.1039 20.1131 20.1196 20.1231 20.1236 20.121 20.1155 20.107 20.096 20.0826 20.0671 20.05 20.0316 20.0125 19.9933 19.9744 19.9565 19.9402 19.9261 19.9146 19.9058 19.8994 19.894 19.8871 19.8746 19.8508 19.8085 19.7412 19.6466 19.5343 19.4388 19.4379 
19.3155 19.378 19.511 19.6468 19.7581 19.8401 19.8983 19.9405 19.9735 20.0021 20.0289 20.055 20.0805 20.1047 20.1271 20.1467 20.1631 20.1755 20.1837 20.1873 20.1863 20.1808 20.1707 20.1565 20.1384 20.1169 20.0925 20.0658 20.0375 20.0082 19.9788 19.9499 19.9224 19.8969 19.8743 19.8553 19.8406 19.8304 19.8252 19.8245 19.8271 19.8306 19.8312 19.8226 19.797 19.7449 19.6583 19.5368 19.4009 19.3155 
19.4379 19.4472 19.5501 19.6732 19.7846 19.8756 19.9479 20.0065 20.0558 20.0994 20.1388 20.1745 20.2064 20.2338 20.2559 20.272 20.2817 20.2845 20.2804 20.2694 20.2517 20.2279 20.1984 20.164 20.1256 20.0841 20.0405 19.9959 19.9514 19.9081 19.8671 19.8294 19.7959 19.7676 19.7453 19.7297 19.7213 19.7204 19.727 19.7406 19.76 19.7828 19.8051 19.8207 19.821 19.794 19.7254 19.6011 19.4177 19.2098 
19.5742 19.5687 19.661 19.7809 19.8975 20.0003 20.0883 20.1635 20.2281 20.2838 20.3312 20.3702 20.4002 20.4208 20.4313 20.4315 20.4211 20.4005 20.3701 20.3305 20.2828 20.2282 20.1679 20.1034 20.0365 19.9686 19.9015 19.8368 19.7762 19.721 19.6727 19.6325 19.6014 19.5802 19.5695 19.5698 19.581 19.603 19.6352 19.6768 19.7259 19.7801 19.8353 19.8859 19.923 19.9337 19.8979 19.7847 19.5483 19.1237 
19.721 19.7845 19.8966 20.0258 20.1517 20.2661 20.3665 20.4523 20.5236 20.5802 20.6218 20.6479 20.6582 20.6524 20.6307 20.5936 20.542 20.477 20.4004 20.3139 20.2196 20.1199 20.0173 19.9143 19.8133 19.717 19.6276 19.5474 19.4783 19.4221 19.3801 19.3534 19.3426 19.3481 19.3697 19.407 19.4591 19.5248 19.6024 19.69 19.785 19.8845 19.9845 20.0799 20.1637 20.2249 20.2442 20.181 19.9354 19.0591 
19.8747 20.1874 20.3387 20.4818 20.6129 20.729 20.8271 20.9048 20.9603 20.9921 20.9995 20.9823 20.9409 20.8763 20.7902 20.6845 20.5621 20.4258 20.279 20.1253 19.9686 19.8126 19.6613 19.5182 19.3871 19.271 19.1729 19.0952 19.0397 19.0079 19.0005 19.0177 19.0591 19.1237 19.2098 19.3155 19.4379 19.5742 19.721 19.8747 20.0314 20.1874 20.3387 20.4818 20.6129 20.729 20.8271 20.9048 20.9603 19.0177 
