# vtk DataFile Version 3.0
Temperature distribution on a 2D grid
ASCII

DATASET STRUCTURED_POINTS
DIMENSIONS 50 50 1
ORIGIN 0.0 0.0 0.0
SPACING 0.01 0.01 1.0

POINT_DATA 2500
SCALARS temperature double
LOOKUP_TABLE default
19.3155 20.5621 20.4258 20.279 20.1253 19.9686 19.8126 19.6613 19.5182 19.3871 19.271 19.1729 19.0952 19.0397 19.0079 19.0005 19.0177 19.0591 19.1237 19.2098 19.3155 19.4379 19.5742 19.721 19.8747 20.0314 20.1874 20.3387 20.4818 20.6129 20.729 20.8271 20.9048 20.9603 20.9921 20.9995 20.9823 20.9409 20.8763 20.7902 20.6845 20.5621 20.4258 20.279 20.1253 19.9686 19.8126 19.6613 19.5182 19.271 
19.2098 19.8262 19.9463 19.9276 19.8556 19.7649 19.6715 19.5839 19.5066 19.4427 19.3938 19.3609 19.3446 19.3451 19.362 19.3948 19.4426 19.5042 19.578 19.6622 19.7547 19.8532 19.9553 20.0585 20.1603 20.2581 20.3496 20.4324 20.5046 20.5644 20.6103 20.6411 20.6562 20.6551 20.6378 20.6049 20.5573 20.496 20.4229 20.3397 20.2486 20.1513 20.0497 19.9444 19.8353 19.7204 19.597 19.4626 19.3195 19.1729 
19.1237 19.5515 19.7348 19.7887 19.7776 19.7383 19.691 19.6466 19.6109 19.5867 19.575 19.5759 19.5887 19.6128 19.6471 19.6905 19.7417 19.7993 19.8619 19.9278 19.9955 20.0633 20.1295 20.1925 20.2507 20.3028 20.3475 20.3835 20.4102 20.4267 20.4327 20.428 20.4128 20.3874 20.3525 20.309 20.2581 20.2012 20.1399 20.076 20.0109 19.9459 19.881 19.8148 19.7434 19.6601 19.556 19.4227 19.2608 19.0952 
19.0591 19.4384 19.6552 19.7581 19.7923 19.7906 19.7745 19.7566 19.7439 19.7395 19.7443 19.7581 19.7801 19.8089 19.8434 19.8823 19.9243 19.9684 20.0132 20.0576 20.1006 20.1411 20.1781 20.2107 20.2381 20.2596 20.2748 20.2831 20.2845 20.2789 20.2664 20.2473 20.2221 20.1915 20.1561 20.117 20.0753 20.0323 19.9893 19.9478 19.9088 19.8727 19.8386 19.8031 19.7597 19.6976 19.6025 19.4602 19.2656 19.0397 
19.0177 19.385 19.6279 19.7676 19.8358 19.8615 19.866 19.8633 19.8615 19.8644 19.8735 19.8887 19.9091 19.9334 19.9606 19.9894 20.0188 20.0479 20.0759 20.1019 20.1253 20.1457 20.1624 20.1751 20.1835 20.1873 20.1866 20.1812 20.1714 20.1574 20.1395 20.1181 20.0937 20.067 20.0387 20.0096 19.9805 19.9527 19.9271 19.9048 19.8867 19.8727 19.8611 19.8476 19.8236 19.7754 19.6845 19.5308 19.3014 19.0079 
19.0005 19.3559 19.6156 19.7819 19.8755 19.9211 19.9395 19.9452 19.9475 19.9513 19.9587 19.97 19.9845 20.0013 20.0194 20.0378 20.0557 20.0723 20.0872 20.1 20.1102 20.1176 20.1221 20.1236 20.122 20.1175 20.11 20.0998 20.0872 20.0724 20.0558 20.0378 20.0188 19.9993 19.9798 19.9609 19.9434 19.9281 19.9158 19.9076 19.904 19.905 19.9085 19.9097 19.8992 19.8612 19.7741 19.6121 19.3545 19.0005 
19.0079 19.3399 19.6045 19.7873 19.899 19.9592 19.9871 19.9979 20.0014 20.0036 20.0072 20.0132 20.0213 20.0308 20.0409 20.0508 20.06 20.0678 20.0741 20.0785 20.0809 20.0812 20.0795 20.0759 20.0704 20.0631 20.0543 20.0441 20.0329 20.0208 20.0082 19.9954 19.9825 19.9701 19.9584 19.9478 19.9388 19.9322 19.9288 19.9294 19.9347 19.9448 19.9577 19.9688 19.9683 19.9395 19.8583 19.6943 19.4188 19.0177 
19.0397 19.3346 19.592 19.782 19.9053 19.976 20.0112 20.0256 20.0296 20.0298 20.0298 20.0311 20.0338 20.0376 20.0418 20.0458 20.0493 20.0518 20.053 20.0529 20.0515 20.0488 20.0448 20.0397 20.0336 20.0267 20.0191 20.0111 20.0028 19.9944 19.9861 19.9781 19.9705 19.9636 19.9575 19.9526 19.9491 19.9478 19.9493 19.9546 19.9646 19.9796 19.9982 20.016 20.0238 20.0046 19.9327 19.7741 19.492 19.0591 
19.0952 19.3407 19.58 19.7691 19.8985 19.9766 20.0176 20.0352 20.0399 20.039 20.0365 20.0344 20.0334 20.0332 20.0337 20.0342 20.0344 20.034 20.0329 20.031 20.0282 20.0248 20.0206 20.016 20.0109 20.0056 20.0001 19.9947 19.9894 19.9843 19.9796 19.9753 19.9715 19.9683 19.9658 19.9641 19.9636 19.9648 19.9685 19.9757 19.9876 20.0047 20.0265 20.0493 20.0646 20.056 19.9971 19.8507 19.5731 19.1237 
19.1729 19.3595 19.5718 19.7528 19.8838 19.9667 20.0125 20.0334 20.0396 20.0385 20.0348 20.0308 20.0275 20.0251 20.0234 20.0221 20.0208 20.0193 20.0174 20.0151 20.0124 20.0094 20.006 20.0026 19.999 19.9955 19.9921 19.9889 19.986 19.9834 19.9811 19.9793 19.9779 19.9768 19.9762 19.9761 19.9768 19.9788 19.9829 19.9902 20.0022 20.0199 20.0434 20.0702 20.0928 20.0958 20.0528 19.9247 19.6613 19.2098 
19.271 19.3919 19.57 19.7373 19.8658 19.9515 20.0012 20.0254 20.0337 20.0335 20.0296 20.0248 20.0205 20.0171 20.0145 20.0124 20.0106 20.0088 20.007 20.0051 20.003 20.0008 19.9986 19.9964 19.9942 19.9922 19.9904 19.9889 19.9876 19.9866 19.9859 19.9855 19.9853 19.9853 19.9854 19.9858 19.9866 19.9884 19.9919 19.9984 20.0094 20.0268 20.0512 20.0812 20.1109 20.1261 20.1013 19.9962 19.7556 19.3155 
19.3871 19.4381 19.5767 19.7255 19.8482 19.9344 19.9872 20.0147 20.0255 20.0269 20.0237 20.0191 20.0146 20.0109 20.008 20.0057 20.004 20.0025 20.0011 19.9997 19.9984 19.9971 19.9958 19.9946 19.9935 19.9926 19.9919 19.9913 19.991 19.9909 19.9911 19.9913 19.9916 19.9919 19.9922 19.9925 19.9929 19.9939 19.9964 20.0016 20.0113 20.0277 20.0524 20.0851 20.1214 20.149 20.1438 20.0653 19.8547 19.4379 
19.5182 19.4976 19.5929 19.7193 19.8331 19.918 19.9729 20.0034 20.017 20.0204 20.0185 20.0145 20.0103 20.0067 20.0039 20.0019 20.0003 19.9992 19.9983 19.9975 19.9968 19.9961 19.9955 19.9951 19.9947 19.9944 19.9943 19.9944 19.9946 19.9949 19.9953 19.9958 19.9962 19.9965 19.9966 19.9965 19.9963 19.9964 19.9977 20.0014 20.0097 20.0249 20.0493 20.0841 20.1263 20.166 20.1809 20.1314 19.9566 19.5742 
19.6613 19.5694 19.6189 19.7197 19.822 19.9037 19.9595 19.9926 20.0089 20.0145 20.0142 20.0112 20.0076 20.0044 20.0018 20 19.9988 19.9979 19.9974 19.997 19.9968 19.9966 19.9964 19.9964 19.9964 19.9965 19.9967 19.997 19.9974 19.9978 19.9983 19.9987 19.9991 19.9992 19.999 19.9985 19.9977 19.997 19.9971 19.9995 20.0061 20.0198 20.0436 20.0796 20.127 20.1779 20.2128 20.1938 20.0593 19.721 
19.8126 19.6518 19.6543 19.7272 19.8155 19.8921 19.9478 19.9828 20.0016 20.0094 20.0108 20.0089 20.0061 20.0033 20.001 19.9994 19.9984 19.9978 19.9975 19.9974 19.9974 19.9975 19.9976 19.9978 19.998 19.9983 19.9986 19.9989 19.9993 19.9997 20.0001 20.0004 20.0006 20.0006 20.0001 19.9993 19.998 19.9966 19.9957 19.9967 20.0016 20.0136 20.0363 20.0729 20.1242 20.1852 20.2392 20.2513 20.1605 19.8747 
19.9686 19.7428 19.6984 19.7417 19.8139 19.8837 19.9379 19.9742 19.995 20.0049 20.008 20.0073 20.0053 20.0029 20.001 19.9996 19.9987 19.9983 19.9981 19.9981 19.9983 19.9985 19.9987 19.9989 19.9992 19.9995 19.9998 20.0001 20.0004 20.0007 20.001 20.0012 20.0013 20.0011 20.0005 19.9994 19.9978 19.9958 19.994 19.9937 19.997 20.0071 20.0281 20.0644 20.1185 20.188 20.2599 20.3027 20.2578 20.0314 
20.1253 19.8402 19.7501 19.7628 19.8173 19.8786 19.9301 19.9666 19.9891 20.0009 20.0055 20.0061 20.0048 20.0029 20.0013 20 19.9992 19.9988 19.9987 19.9988 19.999 19.9992 19.9995 19.9997 19.9999 20.0002 20.0004 20.0007 20.0009 20.0012 20.0014 20.0015 20.0015 20.0012 20.0005 19.9993 19.9974 19.995 19.9925 19.991 19.9927 20.0007 20.0196 20.0546 20.1102 20.1865 20.2744 20.3468 20.3488 20.1874 
20.279 19.9417 19.808 19.7899 19.8254 19.8767 19.9242 19.9602 19.9838 19.9971 20.0032 20.0049 20.0044 20.003 20.0016 20.0005 19.9997 19.9994 19.9992 19.9993 19.9995 19.9997 19.9999 20.0001 20.0003 20.0005 20.0007 20.0009 20.0011 20.0012 20.0014 20.0014 20.0014 20.0011 20.0004 19.9991 19.9971 19.9944 19.9913 19.9887 19.9887 19.9945 20.0108 20.0438 20.0994 20.1806 20.2823 20.3825 20.4313 20.3387 
20.4258 20.0446 19.8708 19.8222 19.8379 19.878 19.9204 19.955 19.9791 19.9936 20.0009 20.0037 20.004 20.0031 20.0019 20.0009 20.0002 19.9998 19.9996 19.9996 19.9998 20 20.0001 20.0003 20.0005 20.0006 20.0007 20.0009 20.001 20.0011 20.0012 20.0013 20.0012 20.0009 20.0003 19.999 19.997 19.9941 19.9905 19.987 19.9853 19.9887 20.0021 20.0322 20.0864 20.1706 20.2835 20.4089 20.5033 20.4818 
20.5621 20.1464 19.9368 19.8591 19.8544 19.8824 19.9186 19.9509 19.9749 19.9902 19.9987 20.0024 20.0034 20.003 20.002 20.0011 20.0005 20 19.9999 19.9998 19.9999 20.0001 20.0002 20.0003 20.0005 20.0006 20.0006 20.0007 20.0008 20.0009 20.001 20.001 20.001 20.0008 20.0003 19.9991 19.9971 19.9941 19.9901 19.9857 19.9824 19.9834 19.9935 20.0199 20.0715 20.1564 20.2778 20.4253 20.5629 20.6129 
20.6845 20.2446 20.0043 19.8994 19.8746 19.8897 19.9189 19.9481 19.9713 19.9871 19.9964 20.001 20.0027 20.0027 20.0021 20.0013 20.0007 20.0002 20 19.9999 20 20.0001 20.0002 20.0003 20.0004 20.0004 20.0005 20.0005 20.0006 20.0007 20.0008 20.0009 20.0009 20.0008 20.0003 19.9993 19.9974 19.9944 19.9901 19.9849 19.9801 19.9786 19.9852 20.0073 20.0549 20.1385 20.2653 20.4313 20.6086 20.729 
20.7902 20.3368 20.0718 19.9421 19.8979 19.8997 19.9211 19.9465 19.9684 19.9842 19.9942 19.9995 20.0018 20.0023 20.002 20.0013 20.0008 20.0003 20.0001 20 20 20 20.0001 20.0002 20.0002 20.0003 20.0003 20.0004 20.0004 20.0005 20.0006 20.0007 20.0008 20.0008 20.0005 19.9996 19.9978 19.9948 19.9904 19.9846 19.9784 19.9744 19.9773 19.9946 20.037 20.1172 20.2463 20.4267 20.6394 20.8271 
20.8763 20.4207 20.1374 19.9863 19.9237 19.9122 19.9253 19.9462 19.9662 19.9817 19.992 19.998 20.0009 20.0018 20.0018 20.0013 20.0008 20.0004 20.0001 20 19.9999 20 20 20.0001 20.0001 20.0002 20.0002 20.0002 20.0003 20.0003 20.0005 20.0006 20.0007 20.0008 20.0006 19.9999 19.9984 19.9955 19.9909 19.9846 19.9773 19.9709 19.97 19.982 20.0183 20.0931 20.2213 20.4116 20.6545 20.9048 
20.9409 20.4943 20.1997 20.0309 19.9513 19.9268 19.9312 19.9472 19.9649 19.9796 19.9901 19.9965 19.9999 20.0012 20.0015 20.0012 20.0008 20.0004 20.0001 20 19.9999 19.9999 20 20 20 20.0001 20.0001 20.0001 20.0002 20.0002 20.0003 20.0005 20.0007 20.0009 20.0008 20.0003 19.999 19.9963 19.9918 19.9851 19.9767 19.9681 19.9635 19.9699 19.9991 20.0667 20.1908 20.3864 20.6534 20.9603 
20.9823 20.5557 20.2571 20.0746 19.9801 19.9432 19.9388 19.9494 19.9643 19.978 19.9883 19.995 19.9988 20.0006 20.0011 20.0011 20.0007 20.0004 20.0001 20 19.9999 19.9999 19.9999 20 20 20 20 20.0001 20.0001 20.0001 20.0003 20.0004 20.0007 20.0009 20.001 20.0007 19.9996 19.9972 19.9928 19.9859 19.9766 19.9661 19.9578 19.9585 19.9799 20.0386 20.1556 20.3516 20.6362 20.9921 
20.9995 20.6034 20.3081 20.1165 20.0094 19.9609 19.9479 19.9529 19.9646 19.9769 19.9868 19.9937 19.9978 19.9999 20.0008 20.0009 20.0007 20.0004 20.0001 20 19.9999 19.9999 19.9999 19.9999 20 20 20 20 20 20.0001 20.0002 20.0004 20.0007 20.001 20.0012 20.0011 20.0003 19.9982 19.994 19.9871 19.9772 19.9649 19.9532 19.9482 19.9611 20.0095 20.1166 20.3082 20.6034 20.9995 
20.9921 20.6362 20.3515 20.1555 20.0384 19.9796 19.9583 19.9575 19.9658 19.9763 19.9856 19.9924 19.9968 19.9993 20.0004 20.0007 20.0006 20.0004 20.0002 20 19.9999 19.9999 19.9999 20 20 20 20 20 20 20.0001 20.0002 20.0004 20.0007 20.001 20.0014 20.0015 20.0009 19.9992 19.9953 19.9886 19.9783 19.9646 19.9497 19.939 19.9434 19.9802 20.0747 20.2572 20.5557 20.9823 
20.9603 20.6533 20.3863 20.1907 20.0665 19.9988 19.9697 19.9632 19.9678 19.9763 19.9847 19.9914 19.9959 19.9986 20 20.0005 20.0005 20.0004 20.0002 20.0001 20 20 20 20 20 20 20 20 20 20.0001 20.0001 20.0003 20.0006 20.001 20.0015 20.0018 20.0015 20.0002 19.9968 19.9903 19.9799 19.9651 19.9474 19.9314 19.927 19.9514 20.031 20.1998 20.4943 20.9409 
20.9048 20.6544 20.4115 20.2211 20.0929 20.018 19.9818 19.9697 19.9706 19.9769 19.9843 19.9906 19.9951 19.998 19.9996 20.0003 20.0005 20.0004 20.0003 20.0002 20.0001 20.0001 20.0001 20.0001 20.0001 20.0001 20.0001 20.0001 20.0001 20.0001 20.0001 20.0003 20.0006 20.001 20.0015 20.002 20.0021 20.0011 19.9982 19.9923 19.9819 19.9664 19.9464 19.9254 19.9123 19.9238 19.9864 20.1375 20.4208 20.8763 
20.8271 20.6393 20.4266 20.2462 20.117 20.0368 19.9943 19.977 19.9741 19.9781 19.9842 19.99 19.9945 19.9975 19.9993 20.0001 20.0005 20.0005 20.0005 20.0004 20.0003 20.0003 20.0003 20.0002 20.0002 20.0002 20.0002 20.0001 20.0001 20.0001 20.0001 20.0002 20.0005 20.0009 20.0015 20.0021 20.0025 20.002 19.9997 19.9943 19.9844 19.9685 19.9466 19.9212 19.8998 19.898 19.9422 20.0718 20.3369 20.7902 
20.729 20.6086 20.4312 20.2651 20.1383 20.0547 20.0071 19.9849 19.9783 19.9798 19.9846 19.9897 19.994 19.9971 19.999 20 20.0005 20.0007 20.0006 20.0006 20.0005 20.0005 20.0004 20.0004 20.0004 20.0003 20.0002 20.0002 20.0001 20 20 20 20.0003 20.0007 20.0014 20.0022 20.0028 20.0028 20.0011 19.9965 19.9872 19.9714 19.9482 19.919 19.8898 19.8747 19.8994 20.0044 20.2446 20.6845 
20.6129 20.5628 20.4253 20.2777 20.1563 20.0714 20.0198 19.9933 19.9832 19.9822 19.9855 19.9899 19.9939 19.9969 19.9989 20.0001 20.0006 20.0008 20.0009 20.0008 20.0007 20.0006 20.0006 20.0005 20.0004 20.0003 20.0002 20.0001 20 19.9998 19.9998 19.9998 20 20.0004 20.0011 20.002 20.003 20.0034 20.0025 19.9987 19.9903 19.9749 19.951 19.9187 19.8825 19.8545 19.8591 19.9368 20.1464 20.5621 
20.4818 20.5033 20.4089 20.2835 20.1706 20.0864 20.0322 20.0021 19.9887 19.9852 19.9869 19.9904 19.994 19.9969 19.9989 20.0002 20.0008 20.0011 20.0011 20.001 20.0009 20.0008 20.0006 20.0005 20.0004 20.0002 20.0001 19.9999 19.9997 19.9995 19.9994 19.9994 19.9996 20 20.0007 20.0018 20.003 20.0039 20.0037 20.001 19.9936 19.9792 19.9551 19.9206 19.8782 19.838 19.8224 19.8709 20.0446 20.4258 
20.3387 20.4314 20.3826 20.2825 20.1808 20.0996 20.044 20.011 19.9947 19.9889 19.9889 19.9914 19.9944 19.9971 19.9991 20.0003 20.001 20.0012 20.0012 20.0011 20.0009 20.0007 20.0005 20.0003 20.0001 19.9999 19.9996 19.9994 19.9992 19.999 19.9988 19.9988 19.999 19.9994 20.0002 20.0014 20.0029 20.0043 20.0049 20.0033 19.9973 19.984 19.9605 19.9245 19.877 19.8256 19.7901 19.8082 19.9417 20.279 
20.1874 20.3489 20.3471 20.2748 20.187 20.1107 20.0552 20.0201 20.0012 19.9931 19.9914 19.9928 19.9952 19.9975 19.9993 20.0004 20.001 20.0012 20.0011 20.0009 20.0006 20.0003 20 19.9997 19.9994 19.9991 19.9989 19.9986 19.9984 19.9982 19.9981 19.9981 19.9983 19.9988 19.9996 20.001 20.0028 20.0048 20.0062 20.0058 20.0012 19.9896 19.9671 19.9306 19.8791 19.8177 19.7631 19.7503 19.8404 20.1253 
20.0314 20.258 20.3032 20.2605 20.1888 20.1194 20.0653 20.029 20.008 19.9978 19.9943 19.9945 19.996 19.9978 19.9993 20.0002 20.0007 20.0007 20.0005 20.0001 19.9997 19.9993 19.9989 19.9985 19.9982 19.9979 19.9977 19.9975 19.9973 19.9972 19.9972 19.9973 19.9976 19.9983 19.9993 20.0009 20.0031 20.0056 20.0079 20.0086 20.0057 19.9959 19.9751 19.9389 19.8846 19.8147 19.7423 19.6988 19.743 19.9686 
19.8747 20.1608 20.252 20.2401 20.1863 20.1254 20.0741 20.0375 20.0147 20.0025 19.9973 19.9961 19.9967 19.9978 19.9988 19.9993 19.9995 19.9993 19.999 19.9984 19.9979 19.9974 19.997 19.9966 19.9963 19.9961 19.9961 19.996 19.9961 19.9962 19.9965 19.9968 19.9974 19.9983 19.9996 20.0015 20.004 20.0071 20.0102 20.0122 20.011 20.0032 19.9844 19.9493 19.8935 19.8166 19.7281 19.6549 19.6521 19.8126 
19.721 20.0597 20.1945 20.2137 20.1791 20.1282 20.0809 20.0447 20.0207 20.0067 19.9997 19.997 19.9964 19.9967 19.9971 19.9972 19.9971 19.9967 19.9961 19.9955 19.995 19.9945 19.9942 19.994 19.9939 19.9941 19.9943 19.9947 19.9952 19.9958 19.9965 19.9973 19.9982 19.9995 20.0011 20.0033 20.0062 20.0098 20.0136 20.0167 20.0171 20.0115 19.9951 19.9617 19.9055 19.8234 19.7208 19.6196 19.5697 19.6613 
19.5742 19.9568 20.1319 20.1816 20.1668 20.1271 20.0847 20.0497 20.0249 20.0092 20.0005 19.9962 19.9943 19.9937 19.9934 19.9931 19.9926 19.9921 19.9916 19.9911 19.9907 19.9906 19.9906 19.991 19.9915 19.9922 19.9932 19.9942 19.9954 19.9967 19.9981 19.9995 20.001 20.0027 20.0047 20.0072 20.0103 20.0142 20.0185 20.0225 20.0243 20.0207 20.0067 19.9756 19.9201 19.8346 19.7203 19.5935 19.4979 19.5182 
19.4379 19.8545 20.0649 20.1433 20.1484 20.1205 20.0839 20.0508 20.0256 20.0086 19.9981 19.9923 19.9892 19.9877 19.9868 19.9862 19.9858 19.9854 19.9852 19.9853 19.9856 19.9862 19.9872 19.9885 19.9901 19.9919 19.9939 19.996 19.9983 20.0005 20.0027 20.0048 20.0069 20.0089 20.0112 20.0137 20.0168 20.0206 20.025 20.0293 20.032 20.03 20.0183 19.9898 19.9361 19.849 19.7257 19.5766 19.438 19.3871 
19.3155 19.7545 19.994 20.0983 20.1223 20.1065 20.0762 20.0456 20.0206 20.0026 19.9908 19.9837 19.9798 19.9777 19.9767 19.9763 19.9764 19.9769 19.9778 19.9791 19.9809 19.983 19.9856 19.9885 19.9918 19.9952 19.9987 20.0022 20.0057 20.009 20.012 20.0147 20.0171 20.0193 20.0213 20.0234 20.0258 20.0288 20.0324 20.0362 20.0389 20.0378 20.0279 20.0022 19.951 19.8644 19.7353 19.5682 19.3908 19.271 
19.2098 19.6584 19.9191 20.0451 20.0864 20.0821 20.0586 20.0311 20.007 19.9889 19.9766 19.9691 19.9651 19.9634 19.9632 19.9642 19.9659 19.9684 19.9714 19.9751 19.9793 19.984 19.989 19.9944 19.9998 20.0053 20.0106 20.0157 20.0203 20.0244 20.0279 20.0306 20.0326 20.034 20.0348 20.0354 20.0359 20.0369 20.0385 20.0406 20.0422 20.0409 20.0322 20.0091 19.9614 19.8772 19.7463 19.5664 19.3565 19.1729 
19.1237 19.5671 19.8395 19.9816 20.0375 20.0441 20.0277 20.0044 19.9826 19.9657 19.9545 19.9482 19.9457 19.9461 19.9485 19.9525 19.9576 19.9637 19.9705 19.978 19.9859 19.9941 20.0025 20.0108 20.0188 20.0264 20.0333 20.0394 20.0445 20.0484 20.0512 20.0526 20.0527 20.0517 20.0496 20.0469 20.0439 20.0412 20.0391 20.0379 20.0368 20.0341 20.0258 20.0051 19.9618 19.8827 19.7543 19.5685 19.3344 19.0952 
19.0591 19.4815 19.7544 19.9058 19.9728 19.9894 19.9808 19.9633 19.9461 19.9332 19.9257 19.9234 19.9253 19.9305 19.9381 19.9476 19.9584 19.9701 19.9825 19.9953 20.008 20.0206 20.0326 20.0439 20.054 20.0628 20.0701 20.0756 20.0793 20.0809 20.0805 20.0781 20.0738 20.0677 20.0602 20.0517 20.0429 20.0343 20.0266 20.0203 20.0152 20.01 20.0014 19.9832 19.9457 19.8749 19.7547 19.5712 19.3233 19.0397 
19.0177 19.4021 19.6632 19.8163 19.891 19.917 19.9179 19.9095 19.9006 19.8958 19.8964 19.9023 19.9126 19.9264 19.9427 19.9607 19.9798 19.9993 20.0188 20.0377 20.0557 20.0722 20.087 20.0996 20.1098 20.1172 20.1218 20.1234 20.1219 20.1173 20.1099 20.0996 20.087 20.0722 20.0559 20.0386 20.0212 20.0046 19.9896 19.977 19.967 19.9591 19.9506 19.9362 19.9067 19.8485 19.7432 19.5718 19.3226 19.0079 
19.0005 19.3306 19.5678 19.7154 19.795 19.8315 19.8454 19.851 19.8565 19.866 19.8807 19.9004 19.9243 19.9512 19.9799 20.0093 20.0387 20.067 20.0937 20.118 20.1394 20.1573 20.1713 20.1811 20.1864 20.1872 20.1833 20.1749 20.1622 20.1454 20.1251 20.1016 20.0756 20.0478 20.019 19.9901 19.9621 19.9363 19.9136 19.8952 19.8816 19.8727 19.8667 19.8592 19.8421 19.8021 19.7201 19.5718 19.3343 19.0005 
19.0079 19.2714 19.4752 19.6124 19.6969 19.7476 19.7809 19.8083 19.8363 19.8681 19.9043 19.9444 19.9871 20.031 20.0747 20.1168 20.156 20.1914 20.2221 20.2473 20.2663 20.2788 20.2844 20.283 20.2746 20.2595 20.238 20.2106 20.178 20.1409 20.1004 20.0574 20.013 19.9682 19.9244 19.8828 19.8446 19.8112 19.7838 19.7636 19.7514 19.7472 19.7499 19.7559 19.7584 19.7451 19.6964 19.5834 19.369 19.0177 
19.0397 19.236 19.4037 19.5312 19.6251 19.6979 19.7603 19.8197 19.8802 19.9431 20.008 20.0737 20.1384 20.2004 20.2577 20.3088 20.3525 20.3874 20.4128 20.428 20.4327 20.4266 20.4101 20.3835 20.3474 20.3027 20.2507 20.1924 20.1294 20.0631 19.9953 19.9276 19.8617 19.7992 19.7417 19.6908 19.648 19.6144 19.5914 19.5798 19.5803 19.5928 19.6161 19.6475 19.6812 19.7066 19.7048 19.6424 19.4614 19.0591 
19.0952 19.252 19.3929 19.5194 19.6338 19.7408 19.8446 19.9474 20.0495 20.15 20.2471 20.3386 20.4221 20.4956 20.557 20.6048 20.6378 20.6551 20.6562 20.6411 20.6103 20.5644 20.5046 20.4324 20.3495 20.2581 20.1602 20.0585 19.9553 19.8531 19.7546 19.6621 19.578 19.5042 19.4427 19.395 19.3624 19.3459 19.346 19.363 19.3966 19.446 19.5097 19.5848 19.6668 19.7477 19.8122 19.8277 19.7133 19.1237 
19.1729 19.3871 19.5182 19.6613 19.8126 19.9686 20.1253 20.279 20.4258 20.5621 20.6845 20.7902 20.8763 20.9409 20.9823 20.9995 20.9921 20.9603 20.9048 20.8271 20.729 20.6129 20.4818 20.3387 20.1874 20.0314 19.8747 19.721 19.5742 19.4379 19.3155 19.2098 19.1237 19.0591 19.0177 19.0005 19.0079 19.0397 19.0952 19.1729 19.271 19.3871 19.5182 19.6613 19.8126 19.9686 20.1253 20.279 20.4258 19.2098 
