# vtk DataFile Version 3.0
Temperature distribution on a 2D grid
ASCII

DATASET STRUCTURED_POINTS
DIMENSIONS 50 50 1
ORIGIN 0.0 0.0 0.0
SPACING 0.01 0.01 1.0

POINT_DATA 2500
SCALARS temperature double
LOOKUP_TABLE default
19.4122 20.454 20.309 20.1564 20 19.8436 19.691 19.546 19.4122 19.2929 19.191 19.109 19.0489 19.0123 19 19.0123 19.0489 19.109 19.191 19.2929 19.4122 19.546 19.691 19.8436 20 20.1564 20.309 20.454 20.5878 20.7071 20.809 20.891 20.9511 20.9877 21 20.9877 20.9511 20.891 20.809 20.7071 20.5878 20.454 20.309 20.1564 20 19.8436 19.691 19.546 19.4122 19.191 
19.2929 19.815 19.9005 19.8658 19.7876 19.6966 19.607 19.5261 19.4579 19.4046 19.3675 19.3473 19.344 19.3574 19.387 19.4319 19.4908 19.5623 19.6446 19.7356 19.8331 19.9347 20.0379 20.1402 20.239 20.3319 20.4166 20.4911 20.5535 20.6023 20.6362 20.6545 20.6566 20.6426 20.6127 20.5678 20.509 20.4379 20.3562 20.2663 20.1702 20.0701 19.9679 19.8644 19.7593 19.6505 19.5341 19.4057 19.2641 19.109 
19.191 19.5797 19.7357 19.7729 19.7534 19.7116 19.666 19.6262 19.5972 19.5807 19.5773 19.5866 19.6078 19.6397 19.6811 19.7307 19.7872 19.8489 19.9143 19.9818 20.0497 20.1164 20.1802 20.2395 20.293 20.3392 20.3771 20.4056 20.4242 20.4324 20.4299 20.4168 20.3934 20.3603 20.3183 20.2686 20.2124 20.1514 20.0872 20.0218 19.9567 19.8932 19.8317 19.7708 19.7065 19.6315 19.5353 19.4064 19.2395 19.0489 
19.109 19.4801 19.6816 19.7711 19.7963 19.7901 19.7732 19.7573 19.7482 19.7484 19.7583 19.777 19.8035 19.8364 19.8742 19.9155 19.9592 20.004 20.0487 20.0921 20.1332 20.171 20.2046 20.2331 20.2558 20.2723 20.282 20.2848 20.2806 20.2695 20.2518 20.2278 20.1981 20.1636 20.125 20.0835 20.0401 19.9963 19.9534 19.913 19.8761 19.8434 19.8141 19.785 19.7496 19.6965 19.6097 19.4711 19.2688 19.0123 
19.0489 19.4272 19.6653 19.7957 19.8554 19.8753 19.8769 19.8737 19.873 19.8779 19.8895 19.907 19.9294 19.9554 19.9836 20.0128 20.0419 20.0702 20.0967 20.1208 20.1418 20.1593 20.1729 20.1821 20.1869 20.1871 20.1827 20.1738 20.1606 20.1434 20.1227 20.0989 20.0727 20.0446 20.0154 19.986 19.9571 19.93 19.9057 19.8854 19.87 19.8596 19.8529 19.8457 19.8296 19.7907 19.7087 19.5595 19.3234 19 
19.0123 19.3917 19.6548 19.8157 19.9019 19.9412 19.9551 19.9585 19.96 19.964 19.9721 19.9841 19.9991 20.0162 20.0342 20.052 20.0689 20.0842 20.0974 20.1082 20.1163 20.1214 20.1235 20.1226 20.1186 20.1117 20.1021 20.0899 20.0756 20.0593 20.0416 20.0228 20.0034 19.9839 19.9647 19.9465 19.9299 19.9158 19.905 19.8987 19.8974 19.9015 19.9092 19.9162 19.9134 19.8849 19.8076 19.6523 19.3914 19.0123 
19 19.3655 19.6402 19.8214 19.927 19.9808 20.0036 20.0108 20.0123 20.0134 20.0166 20.0224 20.0303 20.0394 20.0489 20.058 20.0661 20.0727 20.0775 20.0804 20.0812 20.08 20.0767 20.0716 20.0647 20.0561 20.0463 20.0352 20.0233 20.0109 19.9981 19.9853 19.9728 19.9609 19.9499 19.9402 19.9323 19.9268 19.9246 19.9266 19.9336 19.9459 19.9623 19.9785 19.9852 19.9662 19.8961 19.7419 19.4679 19.0489 
19.0123 19.348 19.6212 19.8132 19.9321 19.9969 20.0266 20.0368 20.038 20.0365 20.0356 20.0362 20.0384 20.0416 20.0452 20.0485 20.0511 20.0526 20.0528 20.0517 20.0493 20.0456 20.0408 20.0349 20.0281 20.0207 20.0127 20.0045 19.9961 19.9878 19.9798 19.9722 19.9653 19.959 19.9537 19.9495 19.9469 19.9463 19.9486 19.9547 19.9657 19.9821 20.0033 20.0256 20.0402 20.0311 19.9718 19.8261 19.5512 19.109 
19.0489 19.3411 19.6012 19.7956 19.9228 19.9958 20.0315 20.0447 20.0463 20.0433 20.0395 20.0366 20.035 20.0344 20.0343 20.0343 20.0339 20.0329 20.0312 20.0287 20.0254 20.0214 20.0169 20.0119 20.0067 20.0012 19.9958 19.9904 19.9853 19.9806 19.9763 19.9725 19.9692 19.9666 19.9647 19.9636 19.9637 19.9653 19.9692 19.9767 19.9889 20.0068 20.0305 20.0571 20.0789 20.0806 20.0356 19.9053 19.6406 19.191 
19.109 19.3468 19.5842 19.7741 19.9049 19.984 20.025 20.0415 20.0445 20.0412 20.036 20.0312 20.0274 20.0247 20.0227 20.021 20.0194 20.0175 20.0154 20.0128 20.0099 20.0066 20.0032 19.9997 19.9962 19.9927 19.9895 19.9865 19.9839 19.9816 19.9798 19.9784 19.9774 19.9768 19.9766 19.9769 19.9778 19.9799 19.9839 19.991 20.0028 20.0207 20.0455 20.0754 20.1041 20.1174 20.0895 19.9801 19.7353 19.2929 
19.191 19.3664 19.5735 19.7529 19.8837 19.9668 20.0125 20.0327 20.0378 20.0353 20.03 20.0244 20.0197 20.016 20.0132 20.011 20.009 20.0072 20.0053 20.0033 20.0012 19.999 19.9968 19.9946 19.9926 19.9908 19.9891 19.9878 19.9868 19.9861 19.9857 19.9856 19.9857 19.986 19.9864 19.9869 19.9878 19.9894 19.9925 19.9985 20.0091 20.0262 20.0512 20.0838 20.119 20.1443 20.1353 20.0513 19.8344 19.4122 
19.2929 19.4005 19.5714 19.7353 19.8626 19.9479 19.9975 20.0215 20.0293 20.0285 20.0239 20.0185 20.0136 20.0096 20.0067 20.0044 20.0027 20.0012 19.9998 19.9985 19.9972 19.9959 19.9948 19.9937 19.9927 19.992 19.9914 19.9911 19.991 19.9911 19.9914 19.9919 19.9924 19.9929 19.9933 19.9936 19.9939 19.9946 19.9966 20.001 20.01 20.0258 20.0506 20.0852 20.1264 20.1637 20.1745 20.1189 19.9363 19.546 
19.4122 19.4489 19.579 19.7233 19.8441 19.9297 19.9824 20.01 20.0208 20.0221 20.0188 20.014 20.0094 20.0056 20.0028 20.0008 19.9994 19.9983 19.9975 19.9967 19.9961 19.9956 19.9951 19.9947 19.9944 19.9943 19.9943 19.9945 19.9948 19.9953 19.9958 19.9964 19.9969 19.9973 19.9975 19.9973 19.997 19.9968 19.9975 20.0004 20.0076 20.0219 20.046 20.0819 20.1283 20.177 20.2077 20.1823 20.0391 19.691 
19.546 19.5108 19.5968 19.718 19.8294 19.9134 19.9683 19.999 20.0129 20.0165 20.0148 20.011 20.007 20.0036 20.001 19.9992 19.9981 19.9974 19.9969 19.9967 19.9965 19.9964 19.9963 19.9963 19.9964 19.9966 19.9969 19.9973 19.9977 19.9983 19.9988 19.9993 19.9997 19.9999 19.9997 19.9991 19.9982 19.9971 19.9966 19.9981 20.0036 20.016 20.039 20.0756 20.1262 20.1851 20.2352 20.2409 20.1408 19.8436 
19.691 19.5848 19.6247 19.7199 19.8193 19.8999 19.9556 19.989 20.0057 20.0117 20.0117 20.009 20.0057 20.0027 20.0005 19.9989 19.998 19.9975 19.9973 19.9973 19.9974 19.9975 19.9977 19.9979 19.9982 19.9985 19.9988 19.9992 19.9996 20.0001 20.0005 20.0009 20.0011 20.001 20.0006 19.9997 19.9983 19.9965 19.9951 19.9951 19.9989 20.0094 20.0308 20.0672 20.1208 20.1886 20.2569 20.2935 20.239 20 
19.8436 19.6692 19.6621 19.729 19.8141 19.8893 19.9447 19.98 19.9992 20.0075 20.0092 20.0078 20.0052 20.0026 20.0006 19.9992 19.9984 19.9981 19.998 19.9981 19.9983 19.9985 19.9988 19.9991 19.9994 19.9997 20 20.0003 20.0006 20.001 20.0013 20.0015 20.0016 20.0014 20.0009 19.9997 19.998 19.9957 19.9934 19.9922 19.9942 20.0027 20.0221 20.0574 20.1127 20.1877 20.2725 20.339 20.3314 20.1564 
20 19.7617 19.7079 19.745 19.8138 19.8819 19.9356 19.972 19.9933 20.0036 20.007 20.0067 20.0049 20.0028 20.001 19.9998 19.9991 19.9987 19.9987 19.9988 19.999 19.9993 19.9996 19.9998 20.0001 20.0003 20.0006 20.0008 20.0011 20.0013 20.0015 20.0017 20.0017 20.0014 20.0008 19.9995 19.9976 19.9949 19.992 19.9897 19.99 19.9962 20.0131 20.0465 20.1021 20.1825 20.2816 20.3763 20.4157 20.309 
20.1564 19.8602 19.7611 19.7675 19.8183 19.8777 19.9285 19.965 19.9878 19.9999 20.0049 20.0058 20.0047 20.0031 20.0015 20.0003 19.9996 19.9993 19.9992 19.9993 19.9995 19.9998 20 20.0002 20.0004 20.0006 20.0008 20.001 20.0011 20.0013 20.0014 20.0015 20.0015 20.0013 20.0006 19.9994 19.9973 19.9945 19.9909 19.9876 19.9863 19.9901 20.0041 20.0348 20.0894 20.1731 20.2839 20.4045 20.4899 20.454 
20.309 19.9622 19.8202 19.7958 19.8274 19.8766 19.9232 19.959 19.9828 19.9964 20.0028 20.0048 20.0044 20.0032 20.0019 20.0008 20.0001 19.9997 19.9996 19.9997 19.9998 20 20.0002 20.0004 20.0005 20.0007 20.0008 20.0009 20.001 20.0011 20.0012 20.0013 20.0013 20.0011 20.0005 19.9993 19.9973 19.9943 19.9903 19.9861 19.9831 19.9846 19.9953 20.0226 20.0747 20.1596 20.2795 20.4229 20.552 20.5878 
20.454 20.0651 19.8838 19.8292 19.8408 19.8786 19.9199 19.9541 19.9782 19.9929 20.0006 20.0036 20.004 20.0032 20.0021 20.0011 20.0004 20 19.9998 19.9998 19.9999 20.0001 20.0002 20.0004 20.0005 20.0006 20.0007 20.0007 20.0008 20.0009 20.001 20.0011 20.0011 20.001 20.0005 19.9994 19.9975 19.9944 19.9902 19.9851 19.9807 19.9796 19.9869 20.0099 20.0584 20.1424 20.2683 20.431 20.6006 20.7071 
20.5878 20.1664 19.9502 19.8669 19.8582 19.8836 19.9185 19.9503 19.9741 19.9896 19.9983 20.0022 20.0033 20.003 20.0022 20.0013 20.0006 20.0002 20 19.9999 20 20.0001 20.0002 20.0003 20.0004 20.0004 20.0005 20.0005 20.0006 20.0007 20.0008 20.0009 20.0009 20.0009 20.0005 19.9996 19.9978 19.9948 19.9903 19.9846 19.9788 19.9752 19.9789 19.9972 20.0407 20.1217 20.2506 20.4285 20.6345 20.809 
20.7071 20.2636 20.0179 19.9078 19.8791 19.8915 19.9192 19.9477 19.9707 19.9865 19.996 20.0008 20.0026 20.0027 20.0021 20.0014 20.0007 20.0003 20 19.9999 19.9999 20 20.0001 20.0002 20.0002 20.0003 20.0003 20.0004 20.0004 20.0005 20.0006 20.0007 20.0008 20.0009 20.0007 19.9999 19.9983 19.9954 19.9908 19.9846 19.9775 19.9716 19.9714 19.9845 20.0221 20.0981 20.2267 20.4154 20.6527 20.891 
20.809 20.3544 20.0851 19.9509 19.9029 19.9021 19.9218 19.9464 19.9679 19.9837 19.9938 19.9993 20.0017 20.0022 20.0019 20.0013 20.0008 20.0003 20 19.9999 19.9999 19.9999 20 20.0001 20.0001 20.0002 20.0002 20.0002 20.0002 20.0003 20.0004 20.0006 20.0008 20.0009 20.0008 20.0003 19.9989 19.9962 19.9916 19.985 19.9767 19.9686 19.9647 19.9723 20.0029 20.0721 20.1973 20.3922 20.6549 20.9511 
20.891 20.4364 20.1502 19.9953 19.9291 19.915 19.9263 19.9463 19.9659 19.9813 19.9916 19.9977 20.0007 20.0017 20.0017 20.0013 20.0008 20.0003 20.0001 19.9999 19.9999 19.9999 19.9999 20 20 20.0001 20.0001 20.0001 20.0001 20.0002 20.0003 20.0005 20.0007 20.0009 20.001 20.0007 19.9995 19.997 19.9926 19.9858 19.9766 19.9665 19.9589 19.9607 19.9837 20.0443 20.163 20.3593 20.6409 20.9877 
20.9511 20.5076 20.2116 20.0397 19.957 19.93 19.9326 19.9475 19.9647 19.9793 19.9897 19.9962 19.9997 20.0011 20.0014 20.0012 20.0007 20.0004 20.0001 19.9999 19.9999 19.9999 19.9999 19.9999 20 20 20 20 20.0001 20.0001 20.0002 20.0004 20.0007 20.001 20.0012 20.001 20.0002 19.998 19.9938 19.9869 19.977 19.9651 19.954 19.9502 19.9648 20.0154 20.1247 20.3175 20.6112 21 
20.9877 20.5663 20.2678 20.0832 19.9859 19.9466 19.9405 19.95 19.9643 19.9777 19.988 19.9947 19.9986 20.0005 20.0011 20.001 20.0007 20.0004 20.0001 19.9999 19.9999 19.9999 19.9999 19.9999 20 20 20 20 20 20.0001 20.0002 20.0004 20.0007 20.001 20.0013 20.0014 20.0008 19.999 19.9951 19.9883 19.978 19.9646 19.9503 19.9408 19.9468 19.9861 20.0833 20.2679 20.5664 20.9877 
21 20.6111 20.3174 20.1245 20.0152 19.9646 19.9499 19.9537 19.9648 19.9767 19.9865 19.9934 19.9976 19.9998 20.0007 20.0008 20.0006 20.0004 20.0001 20 19.9999 19.9999 19.9999 19.9999 20 20 20 20 20 20 20.0001 20.0003 20.0006 20.001 20.0015 20.0017 20.0014 20 19.9965 19.99 19.9795 19.965 19.9478 19.9328 19.9301 19.9571 20.0398 20.2117 20.5076 20.9511 
20.9877 20.6409 20.3592 20.1628 20.0441 19.9834 19.9605 19.9585 19.9661 19.9762 19.9854 19.9922 19.9966 19.9991 20.0003 20.0006 20.0006 20.0004 20.0002 20.0001 20 20 20 20 20 20 20 20 20 20 20.0001 20.0003 20.0006 20.001 20.0015 20.002 20.002 20.001 19.998 19.9919 19.9815 19.9661 19.9465 19.9265 19.9151 19.9292 19.9954 20.1503 20.4364 20.891 
20.9511 20.6548 20.3921 20.1971 20.0719 20.0027 19.972 19.9644 19.9683 19.9764 19.9846 19.9912 19.9958 19.9985 19.9999 20.0005 20.0006 20.0005 20.0003 20.0002 20.0001 20.0001 20.0001 20.0001 20.0001 20.0001 20.0001 20.0001 20.0001 20 20.0001 20.0002 20.0005 20.001 20.0016 20.0022 20.0025 20.0019 19.9995 19.994 19.9839 19.9681 19.9465 19.922 19.9022 19.903 19.951 20.0852 20.3544 20.809 
20.891 20.6527 20.4153 20.2266 20.0979 20.0218 19.9842 19.9711 19.9712 19.9771 19.9842 19.9905 19.995 19.9979 19.9996 20.0003 20.0006 20.0005 20.0004 20.0003 20.0003 20.0002 20.0002 20.0002 20.0002 20.0002 20.0002 20.0001 20.0001 20 20.0001 20.0002 20.0004 20.0009 20.0015 20.0023 20.0029 20.0027 20.001 19.9962 19.9867 19.9708 19.9479 19.9193 19.8916 19.8792 19.9078 20.0179 20.2636 20.7071 
20.809 20.6344 20.4284 20.2505 20.1215 20.0405 19.9969 19.9786 19.9749 19.9784 19.9843 19.99 19.9945 19.9975 19.9993 20.0002 20.0006 20.0007 20.0006 20.0006 20.0005 20.0004 20.0004 20.0004 20.0004 20.0003 20.0003 20.0002 20.0001 20 20 20 20.0002 20.0007 20.0014 20.0023 20.0031 20.0034 20.0023 19.9984 19.9897 19.9742 19.9504 19.9186 19.8837 19.8583 19.8669 19.9503 20.1664 20.5878 
20.7071 20.6006 20.4309 20.2682 20.1423 20.0582 20.0097 19.9867 19.9794 19.9804 19.9849 19.9899 19.9942 19.9972 19.9992 20.0003 20.0007 20.0009 20.0009 20.0008 20.0007 20.0007 20.0006 20.0005 20.0005 20.0004 20.0003 20.0002 20 19.9999 19.9998 19.9998 20 20.0004 20.0011 20.0021 20.0032 20.004 20.0036 20.0006 19.993 19.9783 19.9542 19.92 19.8787 19.8409 19.8293 19.8838 20.0651 20.454 
20.5878 20.552 20.4229 20.2795 20.1596 20.0747 20.0225 19.9953 19.9845 19.9831 19.986 19.9902 19.9942 19.9972 19.9992 20.0004 20.0009 20.0012 20.0012 20.0011 20.001 20.0008 20.0007 20.0006 20.0005 20.0003 20.0002 20 19.9998 19.9996 19.9994 19.9994 19.9995 19.9999 20.0006 20.0017 20.0031 20.0044 20.0047 20.0028 19.9964 19.9828 19.9591 19.9233 19.8767 19.8275 19.7959 19.8203 19.9622 20.309 
20.454 20.4899 20.4046 20.2841 20.1733 20.0896 20.035 20.0043 19.9903 19.9864 19.9877 19.991 19.9945 19.9974 19.9994 20.0006 20.0012 20.0014 20.0014 20.0012 20.001 20.0008 20.0006 20.0004 20.0002 20 19.9998 19.9996 19.9993 19.9991 19.9989 19.9988 19.9989 19.9993 20 20.0012 20.0029 20.0046 20.0057 20.0049 20 19.9879 19.9652 19.9287 19.8779 19.8185 19.7677 19.7612 19.8603 20.1564 
20.309 20.4158 20.3765 20.2819 20.183 20.1026 20.047 20.0136 19.9967 19.9904 19.9901 19.9923 19.9952 19.9977 19.9996 20.0007 20.0013 20.0015 20.0014 20.0011 20.0008 20.0005 20.0002 19.9999 19.9996 19.9993 19.999 19.9988 19.9985 19.9983 19.9981 19.998 19.9981 19.9985 19.9994 20.0007 20.0026 20.0049 20.0068 20.0072 20.0039 19.9936 19.9724 19.9361 19.8824 19.8142 19.7454 19.7082 19.7618 20 
20.1564 20.3316 20.3394 20.2731 20.1885 20.1136 20.0583 20.023 20.0036 19.995 19.9929 19.9939 19.9961 19.9982 19.9997 20.0007 20.0011 20.0011 20.0009 20.0005 20.0001 19.9996 19.9992 19.9988 19.9984 19.9981 19.9978 19.9976 19.9974 19.9972 19.9971 19.9971 19.9974 19.9979 19.9989 20.0004 20.0026 20.0054 20.0081 20.0098 20.0082 20 19.9808 19.9456 19.8901 19.8148 19.7296 19.6625 19.6694 19.8436 
20 20.2393 20.2941 20.2579 20.1898 20.1221 20.0685 20.0322 20.0106 19.9999 19.996 19.9956 19.9968 19.9983 19.9994 20 20.0002 20 19.9995 19.999 19.9984 19.9978 19.9973 19.9969 19.9965 19.9963 19.9961 19.996 19.996 19.996 19.9962 19.9964 19.9969 19.9977 19.9989 20.0007 20.0033 20.0065 20.0101 20.013 20.0131 20.0072 19.9905 19.9571 19.9012 19.8204 19.7208 19.6253 19.5851 19.691 
19.8436 20.1412 20.2417 20.2364 20.1865 20.1277 20.0771 20.0405 20.0173 20.0045 19.9986 19.9968 19.9968 19.9974 19.998 19.9981 19.9979 19.9975 19.9968 19.9961 19.9955 19.9949 19.9944 19.9941 19.994 19.9939 19.9941 19.9943 19.9947 19.9952 19.9958 19.9965 19.9974 19.9985 20.0001 20.0022 20.0052 20.0089 20.0132 20.0172 20.019 20.0155 20.0015 19.9705 19.9154 19.831 19.7192 19.5976 19.5112 19.546 
19.691 20.0395 20.183 20.2087 20.1781 20.1295 20.0831 20.0469 20.0224 20.0077 19.9999 19.9964 19.9951 19.9947 19.9946 19.9942 19.9937 19.993 19.9923 19.9916 19.9911 19.9907 19.9906 19.9907 19.991 19.9916 19.9924 19.9933 19.9944 19.9956 19.9968 19.9982 19.9996 20.0013 20.0033 20.0058 20.009 20.0131 20.0179 20.0228 20.0261 20.0246 20.0134 19.9854 19.9321 19.8459 19.7246 19.5798 19.4493 19.4122 
19.546 19.9363 20.1189 20.1745 20.1637 20.1263 20.0848 20.0498 20.0245 20.008 19.9983 19.9931 19.9904 19.989 19.9882 19.9875 19.9868 19.9861 19.9857 19.9854 19.9854 19.9857 19.9864 19.9875 19.9888 19.9904 19.9923 19.9943 19.9964 19.9986 20.0008 20.0029 20.0051 20.0072 20.0095 20.0122 20.0155 20.0196 20.0245 20.0298 20.034 20.0342 20.0256 20.0008 19.9502 19.864 19.736 19.5716 19.4005 19.2929 
19.4122 19.8336 20.0498 20.1331 20.1416 20.1157 20.0799 20.0468 20.021 20.0031 19.9918 19.985 19.9812 19.9791 19.9779 19.9772 19.9769 19.977 19.9774 19.9782 19.9795 19.9813 19.9835 19.9862 19.9892 19.9924 19.9959 19.9994 20.0029 20.0063 20.0095 20.0124 20.0151 20.0175 20.0198 20.0221 20.0249 20.0283 20.0326 20.0374 20.0417 20.0429 20.0363 20.0145 19.9674 19.8831 19.7517 19.5722 19.3655 19.191 
19.2929 19.7328 19.9753 20.0828 20.1092 20.0948 20.0652 20.0345 20.009 19.9904 19.978 19.9704 19.9662 19.9641 19.9635 19.9638 19.965 19.9668 19.9692 19.9723 19.976 19.9803 19.985 19.9901 19.9955 20.0009 20.0064 20.0116 20.0166 20.0211 20.025 20.0283 20.0309 20.0328 20.0342 20.0353 20.0364 20.038 20.0404 20.0435 20.0466 20.0475 20.0421 20.0232 19.9801 19.8997 19.7685 19.5795 19.3441 19.109 
19.191 19.6351 19.8948 20.0212 20.0633 20.0598 20.0367 20.0094 19.9855 19.9674 19.9555 19.9485 19.9453 19.945 19.9465 19.9496 19.9539 19.9591 19.9652 19.9721 19.9796 19.9876 19.9958 20.0042 20.0124 20.0204 20.0278 20.0346 20.0405 20.0453 20.0489 20.0514 20.0525 20.0524 20.0513 20.0494 20.0472 20.0452 20.0438 20.0435 20.0438 20.0432 20.0378 20.0212 19.9829 19.9085 19.7819 19.5903 19.335 19.0489 
19.109 19.541 19.8069 19.9456 20.0001 20.0066 19.9908 19.9686 19.9483 19.9334 19.9244 19.9207 19.9214 19.9253 19.9318 19.9402 19.95 19.961 19.9728 19.9852 19.9979 20.0106 20.0231 20.035 20.046 20.0559 20.0644 20.0713 20.0765 20.0797 20.0809 20.08 20.0772 20.0725 20.0662 20.0588 20.0507 20.0428 20.0356 20.0299 20.0257 20.0219 20.0157 20.0012 19.9684 19.9029 19.7863 19.6003 19.3366 19.0123 
19.0489 19.4509 19.7102 19.8535 19.9168 19.9329 19.9261 19.912 19.8991 19.8913 19.8895 19.8934 19.902 19.9143 19.9293 19.9464 19.9647 19.9839 20.0034 20.0228 20.0415 20.0592 20.0754 20.0897 20.1019 20.1115 20.1184 20.1224 20.1233 20.1211 20.1159 20.1078 20.0971 20.084 20.0689 20.0526 20.0358 20.0193 20.0042 19.9914 19.9814 19.9737 19.9664 19.9545 19.9291 19.8761 19.7759 19.6057 19.3469 19 
19.0123 19.3658 19.6051 19.7452 19.8143 19.8409 19.8466 19.8457 19.8462 19.8519 19.8636 19.881 19.9031 19.9287 19.9566 19.9858 20.0154 20.0446 20.0727 20.0989 20.1226 20.1433 20.1604 20.1736 20.1825 20.1869 20.1868 20.182 20.1727 20.1591 20.1415 20.1205 20.0964 20.07 20.042 20.0133 19.9849 19.9581 19.934 19.9138 19.8984 19.8879 19.8812 19.8743 19.8598 19.8244 19.7484 19.6052 19.3661 19.0123 
19 19.289 19.4965 19.6272 19.7018 19.7425 19.7672 19.7876 19.8102 19.838 19.8713 19.9096 19.9513 19.9952 20.0396 20.0833 20.125 20.1636 20.1981 20.2277 20.2517 20.2694 20.2805 20.2847 20.2819 20.2721 20.2557 20.2329 20.2044 20.1708 20.133 20.0919 20.0485 20.0039 19.9593 19.916 19.8752 19.8385 19.8073 19.7827 19.766 19.7576 19.7568 19.7608 19.7635 19.7533 19.7111 19.6073 19.4015 19.0489 
19.0123 19.2296 19.3992 19.5197 19.6038 19.6668 19.7209 19.7739 19.8298 19.8898 19.9535 20.0194 20.0858 20.1506 20.2121 20.2685 20.3183 20.3603 20.3934 20.4167 20.4298 20.4323 20.4242 20.4056 20.377 20.3391 20.2929 20.2394 20.1801 20.1163 20.0496 19.9817 19.9142 19.8488 19.7872 19.731 19.6819 19.6412 19.6104 19.5907 19.5831 19.5877 19.6042 19.6304 19.6614 19.6876 19.6916 19.6417 19.4816 19.109 
19.0489 19.2113 19.3479 19.4658 19.5708 19.6698 19.7675 19.8664 19.9671 20.0685 20.1686 20.2651 20.3555 20.4375 20.5088 20.5677 20.6127 20.6426 20.6566 20.6545 20.6362 20.6023 20.5535 20.4911 20.4166 20.3318 20.2389 20.1401 20.0378 19.9346 19.833 19.7355 19.6445 19.5622 19.4908 19.432 19.3874 19.3582 19.3454 19.3495 19.3706 19.4085 19.4619 19.5288 19.6053 19.6842 19.7521 19.7798 19.6947 19.191 
19.109 19.2929 19.4122 19.546 19.691 19.8436 20 20.1564 20.309 20.454 20.5878 20.7071 20.809 20.891 20.9511 20.9877 21 20.9877 20.9511 20.891 20.809 20.7071 20.5878 20.454 20.309 20.1564 20 19.8436 19.691 19.546 19.4122 19.2929 19.191 19.109 19.0489 19.0123 19 19.0123 19.0489 19.109 19.191 19.2929 19.4122 19.546 19.691 19.8436 20 20.1564 20.309 19.2929 
