# vtk DataFile Version 3.0
Temperature distribution on a 2D grid
ASCII

DATASET STRUCTURED_POINTS
DIMENSIONS 50 50 1
ORIGIN 0.0 0.0 0.0
SPACING 0.01 0.01 1.0

POINT_DATA 2500
SCALARS temperature double
LOOKUP_TABLE default
20.6613 19.4642 19.6029 19.7513 19.9059 20.0628 20.2181 20.3681 20.509 20.6374 20.7501 20.8443 20.9178 20.9686 20.9956 20.998 20.9759 20.9298 20.8607 20.7705 20.6613 20.5358 20.3971 20.2487 20.0941 19.9372 19.7819 19.6319 19.491 19.3626 19.2499 19.1557 19.0822 19.0314 19.0044 19.002 19.0241 19.0702 19.1393 19.2295 19.3387 19.4642 19.6029 19.7513 19.9059 20.0628 20.2181 20.3681 20.509 20.7501 
20.7705 20.1769 20.0652 20.088 20.1616 20.2525 20.3451 20.4312 20.5063 20.5677 20.6137 20.6435 20.6566 20.653 20.6329 20.5971 20.5464 20.4823 20.4063 20.3204 20.2265 20.1271 20.0246 19.9215 19.8203 19.7236 19.6336 19.5527 19.4829 19.4257 19.3828 19.355 19.3431 19.3474 19.3678 19.4038 19.4543 19.518 19.5934 19.6784 19.7709 19.8689 19.9709 20.0758 20.1841 20.2976 20.4194 20.5525 20.6954 20.8443 
20.8607 20.442 20.2652 20.2155 20.2286 20.2686 20.3156 20.3589 20.393 20.4154 20.4251 20.4222 20.4073 20.3814 20.3453 20.3004 20.2479 20.1893 20.126 20.0597 19.9919 19.9243 19.8587 19.7965 19.7394 19.6887 19.6457 19.6114 19.5867 19.5722 19.5682 19.575 19.5922 19.6195 19.6561 19.7012 19.7535 19.8114 19.8735 19.9378 20.003 20.0677 20.1318 20.1967 20.2664 20.3477 20.45 20.5823 20.7457 20.9178 
20.9298 20.5519 20.3386 20.2388 20.2068 20.2096 20.226 20.2434 20.2553 20.2586 20.2526 20.2376 20.2147 20.185 20.1497 20.1103 20.0679 20.0238 19.9791 19.935 19.8925 19.8527 19.8165 19.785 19.7587 19.7384 19.7246 19.7175 19.7175 19.7244 19.7381 19.7584 19.7846 19.8163 19.8524 19.8921 19.9342 19.9774 20.0203 20.0615 20.1 20.1352 20.1681 20.202 20.2434 20.3033 20.3964 20.5379 20.7347 20.9686 
20.9759 20.6052 20.3631 20.2255 20.1592 20.1349 20.1311 20.134 20.1357 20.1323 20.1227 20.1071 20.0863 20.0617 20.0344 20.0057 19.9765 19.9478 19.9203 19.8949 19.8722 19.8526 19.8367 19.8249 19.8174 19.8145 19.8161 19.8223 19.8329 19.8476 19.8662 19.8881 19.9128 19.9398 19.9682 19.9974 20.0263 20.0539 20.0791 20.1008 20.1182 20.1312 20.1415 20.1535 20.1755 20.2213 20.31 20.4628 20.6941 20.9956 
20.998 20.6359 20.3749 20.2097 20.1177 20.0736 20.0563 20.0512 20.0491 20.0454 20.038 20.0267 20.0122 19.9955 19.9777 19.9597 19.9423 19.9262 19.9119 19.8998 19.8903 19.8836 19.8797 19.8789 19.8811 19.8863 19.8942 19.9048 19.9178 19.9329 19.9497 19.9677 19.9867 20.0061 20.0254 20.044 20.0612 20.0761 20.0879 20.0956 20.0984 20.0966 20.0919 20.0892 20.0977 20.1333 20.2181 20.3785 20.6373 20.998 
20.9956 20.6545 20.3868 20.2041 20.0937 20.035 20.0082 19.9984 19.9954 19.9936 19.9903 19.9846 19.9768 19.9676 19.9579 19.9485 19.9399 19.9326 19.927 19.9232 19.9213 19.9215 19.9237 19.9278 19.9338 19.9413 19.9504 19.9607 19.972 19.9841 19.9966 20.0093 20.0219 20.034 20.0454 20.0557 20.0642 20.0704 20.0734 20.0723 20.0664 20.0557 20.0417 20.0292 20.0279 20.0542 20.1327 20.2943 20.5698 20.9759 
20.9686 20.6629 20.4009 20.21 20.0875 20.0181 19.9842 19.9709 19.9677 19.968 19.9684 19.9676 19.9653 19.9619 19.9582 19.9546 19.9517 19.9498 19.9491 19.9497 19.9516 19.9547 19.9591 19.9645 19.9708 19.9778 19.9855 19.9935 20.0017 20.0099 20.018 20.0257 20.033 20.0395 20.0453 20.0499 20.0529 20.0539 20.0521 20.0464 20.036 20.0205 20.0011 19.982 19.9725 19.9891 20.0578 20.2134 20.494 20.9298 
20.9178 20.66 20.4149 20.224 20.0949 20.0178 19.9781 19.9616 19.9577 19.9593 19.9623 19.9649 19.9663 19.9669 19.9669 19.9669 19.9672 19.9681 19.9697 19.972 19.9751 19.979 19.9833 19.9882 19.9933 19.9987 20.0041 20.0095 20.0147 20.0195 20.024 20.0279 20.0314 20.0343 20.0364 20.0377 20.0379 20.0364 20.0325 20.0251 20.013 19.9955 19.9731 19.9492 19.9321 19.938 19.9935 20.136 20.4107 20.8607 
20.8443 20.6444 20.4253 20.2415 20.1103 20.028 19.9833 19.9635 19.9582 19.96 19.9643 19.9688 19.9725 19.9753 19.9774 19.9792 19.981 19.983 19.9853 19.9879 19.991 19.9943 19.9978 20.0014 20.005 20.0085 20.0119 20.0149 20.0177 20.02 20.022 20.0235 20.0246 20.0254 20.0257 20.0255 20.0245 20.0223 20.0181 20.0106 19.9986 19.9806 19.9567 19.9289 19.9047 19.899 19.9382 20.0617 20.3207 20.7705 
20.7501 20.6151 20.4292 20.2584 20.1289 20.0436 19.9948 19.9716 19.9641 19.965 19.9695 19.9747 19.9794 19.9833 19.9863 19.9889 19.9911 19.9933 19.9955 19.9977 20.0001 20.0026 20.005 20.0073 20.0095 20.0115 20.0132 20.0146 20.0157 20.0165 20.0169 20.0171 20.017 20.0167 20.0163 20.0156 20.0146 20.0127 20.0091 20.0026 19.9915 19.9741 19.9493 19.9185 19.8873 19.8694 19.8902 19.9902 20.2251 20.6613 
20.6374 20.5718 20.4246 20.2716 20.1473 20.061 20.0088 19.9822 19.9721 19.9714 19.9751 19.9802 19.9852 19.9893 19.9926 19.9953 19.9975 19.9994 20.0011 20.0028 20.0045 20.006 20.0075 20.0088 20.01 20.0109 20.0115 20.0119 20.0121 20.0119 20.0116 20.0111 20.0105 20.0099 20.0094 20.0089 20.0083 20.0072 20.0047 19.9995 19.9898 19.9734 19.9485 19.9152 19.8775 19.8473 19.8485 19.9213 20.1252 20.5358 
20.509 20.5149 20.4105 20.2791 20.1631 20.0777 20.0232 19.9933 19.9804 19.9777 19.9801 19.9845 19.9891 19.9931 19.9964 19.9988 20.0008 20.0023 20.0036 20.0048 20.0058 20.0067 20.0074 20.0081 20.0085 20.0088 20.0088 20.0087 20.0083 20.0078 20.0072 20.0065 20.0058 20.0053 20.005 20.0049 20.0049 20.0047 20.0034 19.9997 19.9915 19.9764 19.9519 19.9167 19.8733 19.8312 19.8123 19.8557 20.0228 20.3971 
20.3681 20.4455 20.3864 20.28 20.175 20.0924 20.0365 20.0039 19.9882 19.9832 19.9841 19.9875 19.9915 19.9951 19.9981 20.0003 20.002 20.0032 20.0041 20.0049 20.0054 20.0059 20.0062 20.0064 20.0065 20.0064 20.0062 20.0058 20.0053 20.0047 20.004 20.0034 20.0028 20.0025 20.0024 20.0028 20.0034 20.004 20.0039 20.0016 19.9951 19.9816 19.9579 19.9216 19.8733 19.8202 19.7814 19.7942 19.9202 20.2487 
20.2181 20.3651 20.3528 20.2738 20.1823 20.1043 20.0483 20.0135 19.9952 19.988 19.9871 19.9894 19.9926 19.9959 19.9985 20.0005 20.002 20.0029 20.0036 20.0041 20.0044 20.0046 20.0047 20.0047 20.0046 20.0044 20.0041 20.0037 20.0032 20.0026 20.002 20.0015 20.0011 20.001 20.0012 20.0018 20.003 20.0043 20.0052 20.0043 19.9995 19.9877 19.9653 19.9286 19.8766 19.8138 19.756 19.7378 19.8196 20.0941 
20.0628 20.2756 20.3102 20.2606 20.1846 20.1131 20.0583 20.0221 20.0016 19.9921 19.9896 19.9906 19.9931 19.9958 19.9982 20 20.0013 20.0022 20.0027 20.003 20.0032 20.0033 20.0033 20.0033 20.0031 20.0029 20.0026 20.0023 20.0018 20.0014 20.0009 20.0005 20.0002 20.0002 20.0006 20.0015 20.003 20.0049 20.0066 20.007 20.0039 19.9941 19.9734 19.9373 19.8828 19.8117 19.7365 19.6877 19.7234 19.9372 
19.9059 20.1792 20.2599 20.2406 20.1821 20.1187 20.0663 20.0296 20.0073 19.9959 19.9917 19.9915 19.9932 19.9955 19.9976 19.9992 20.0004 20.0012 20.0017 20.002 20.0022 20.0022 20.0022 20.0022 20.0021 20.0019 20.0017 20.0014 20.001 20.0007 20.0003 20 19.9998 19.9999 20.0004 20.0014 20.0031 20.0054 20.0079 20.0095 20.0081 20.0004 19.9819 19.9472 19.8916 19.8141 19.7233 19.6452 19.6339 19.7819 
19.7513 20.0783 20.203 20.2146 20.1748 20.121 20.0723 20.0359 20.0125 19.9994 19.9937 19.9924 19.9933 19.995 19.9969 19.9984 19.9996 20.0003 20.0009 20.0012 20.0013 20.0014 20.0014 20.0014 20.0013 20.0012 20.0011 20.0009 20.0006 20.0003 20 19.9998 19.9996 19.9997 20.0002 20.0013 20.0031 20.0057 20.0088 20.0114 20.0117 20.0064 19.9905 19.9581 19.9027 19.8207 19.7166 19.6113 19.5533 19.6319 
19.6029 19.9755 20.141 20.1831 20.163 20.1202 20.0764 20.0412 20.0171 20.0028 19.9957 19.9933 19.9935 19.9947 19.9963 19.9977 19.9988 19.9996 20.0002 20.0005 20.0007 20.0008 20.0009 20.0009 20.0009 20.0008 20.0007 20.0006 20.0004 20.0002 19.9999 19.9997 19.9995 19.9996 20 20.001 20.0029 20.0057 20.0093 20.0129 20.0148 20.0118 19.9991 19.9697 19.9159 19.8315 19.7168 19.5868 19.4837 19.491 
19.4642 19.8732 20.0755 20.147 20.1472 20.1163 20.0785 20.0454 20.0213 20.0061 19.9978 19.9944 19.9938 19.9946 19.9959 19.9972 19.9982 19.9991 19.9996 20 20.0003 20.0004 20.0005 20.0006 20.0006 20.0006 20.0005 20.0004 20.0003 20.0001 19.9998 19.9996 19.9994 19.9994 19.9997 20.0007 20.0025 20.0054 20.0093 20.0138 20.0173 20.0168 20.0074 19.9818 19.931 19.8463 19.7238 19.5723 19.4267 19.3626 
19.3387 19.7741 20.0081 20.1073 20.1276 20.1095 20.0786 20.0484 20.0249 20.0091 20 19.9957 19.9943 19.9946 19.9956 19.9968 19.9978 19.9986 19.9992 19.9996 19.9999 20.0001 20.0003 20.0004 20.0004 20.0004 20.0004 20.0003 20.0002 20 19.9997 19.9995 19.9992 19.9991 19.9993 20.0002 20.0019 20.0048 20.009 20.0142 20.0192 20.0212 20.0154 19.9943 19.9477 19.8648 19.7374 19.5684 19.3838 19.2499 
19.2295 19.6805 19.9405 20.065 20.1049 20.1 20.0767 20.0503 20.0279 20.012 20.0022 19.997 19.9951 19.9949 19.9956 19.9966 19.9975 19.9983 19.9989 19.9994 19.9997 19.9999 20.0001 20.0002 20.0003 20.0003 20.0003 20.0002 20.0001 19.9999 19.9996 19.9993 19.999 19.9988 19.9989 19.9996 20.0011 20.0039 20.0083 20.0142 20.0206 20.025 20.023 20.0068 19.9656 19.8865 19.7576 19.575 19.3561 19.1557 
19.1393 19.5947 19.8744 20.021 20.0796 20.088 20.073 20.0508 20.0302 20.0146 20.0043 19.9985 19.9959 19.9953 19.9957 19.9965 19.9974 19.9981 19.9988 19.9992 19.9996 19.9998 20 20.0001 20.0002 20.0002 20.0002 20.0001 20 19.9998 19.9995 19.9992 19.9988 19.9985 19.9985 19.9989 20.0003 20.003 20.0074 20.0138 20.0213 20.0281 20.0299 20.019 19.9843 19.911 19.7836 19.5921 19.3442 19.0822 
19.0702 19.519 19.8113 19.9765 20.0524 20.0739 20.0674 20.0502 20.0318 20.0168 20.0064 20.0001 19.9969 19.9958 19.9959 19.9965 19.9973 19.998 19.9986 19.9991 19.9994 19.9997 19.9999 20 20.0001 20.0001 20.0001 20 19.9999 19.9997 19.9994 19.9991 19.9987 19.9983 19.9981 19.9983 19.9994 20.0019 20.0063 20.013 20.0216 20.0305 20.036 20.0308 20.0034 19.9377 19.815 19.6192 19.3485 19.0314 
19.0241 19.455 19.7529 19.9326 20.0238 20.0579 20.0602 20.0483 20.0326 20.0186 20.0082 20.0016 19.998 19.9965 19.9963 19.9967 19.9973 19.998 19.9986 19.999 19.9994 19.9996 19.9998 20 20 20.0001 20.0001 20 19.9999 19.9997 19.9994 19.999 19.9985 19.998 19.9977 19.9977 19.9986 20.0008 20.005 20.0118 20.0212 20.0322 20.0413 20.0419 20.0224 19.9659 19.8509 19.6557 19.3688 19.0044 
19.002 19.4045 19.7006 19.8903 19.9947 20.0405 20.0515 20.0452 20.0326 20.02 20.0099 20.0031 19.9991 19.9973 19.9967 19.9969 19.9974 19.998 19.9986 19.999 19.9994 19.9996 19.9998 19.9999 20 20 20 20 19.9998 19.9996 19.9993 19.9989 19.9984 19.9978 19.9974 19.9972 19.9977 19.9996 20.0036 20.0104 20.0204 20.033 20.0455 20.0518 20.0408 19.9949 19.8905 19.7007 19.4046 19.002 
19.0044 19.3687 19.6556 19.8507 19.9656 20.0221 20.0415 20.0409 20.0318 20.0208 20.0114 20.0045 20.0003 19.9981 19.9972 19.9972 19.9976 19.9981 19.9986 19.999 19.9994 19.9996 19.9998 19.9999 20 20 20 19.9999 19.9998 19.9996 19.9993 19.9989 19.9984 19.9977 19.9971 19.9967 19.997 19.9985 20.0021 20.0087 20.019 20.033 20.0486 20.0605 20.0582 20.024 19.9327 19.753 19.4551 19.0241 
19.0314 19.3484 19.6191 19.8148 19.9374 20.0031 20.0305 20.0357 20.0301 20.0211 20.0125 20.0058 20.0014 19.9989 19.9978 19.9975 19.9978 19.9982 19.9986 19.999 19.9994 19.9996 19.9998 19.9999 20 20 20 20 19.9998 19.9997 19.9994 19.9989 19.9984 19.9977 19.997 19.9964 19.9963 19.9974 20.0005 20.0068 20.0172 20.0322 20.0505 20.0678 20.0742 20.0526 19.9767 19.8115 19.519 19.0702 
19.0822 19.3441 19.592 19.7834 19.9108 19.984 20.0187 20.0295 20.0277 20.0209 20.0132 20.0069 20.0024 19.9997 19.9984 19.9979 19.998 19.9983 19.9987 19.9991 19.9994 19.9996 19.9998 20 20 20.0001 20.0001 20 19.9999 19.9997 19.9995 19.9991 19.9985 19.9978 19.9969 19.9961 19.9958 19.9964 19.999 20.0048 20.015 20.0307 20.0512 20.0733 20.0883 20.0799 20.0212 19.8745 19.5948 19.1393 
19.1557 19.356 19.5749 19.7574 19.8863 19.9653 20.0064 20.0225 20.0245 20.02 20.0136 20.0077 20.0033 20.0005 19.9989 19.9983 19.9982 19.9984 19.9988 19.9991 19.9994 19.9997 19.9999 20 20.0001 20.0001 20.0001 20.0001 20 19.9999 19.9996 19.9993 19.9987 19.998 19.997 19.9961 19.9954 19.9956 19.9976 20.0027 20.0125 20.0284 20.0507 20.0771 20.1003 20.1052 20.0652 19.9407 19.6805 19.2295 
19.2499 19.3837 19.5682 19.7372 19.8645 19.9473 19.9938 20.0149 20.0207 20.0186 20.0136 20.0083 20.004 20.0011 19.9994 19.9986 19.9984 19.9985 19.9988 19.9991 19.9994 19.9997 19.9999 20.0001 20.0002 20.0003 20.0003 20.0003 20.0002 20.0001 19.9999 19.9996 19.999 19.9983 19.9973 19.9962 19.9952 19.9949 19.9962 20.0005 20.0096 20.0254 20.0489 20.0789 20.1098 20.1279 20.1075 20.0083 19.7741 19.3387 
19.3626 19.4266 19.5721 19.7235 19.8459 19.9306 19.9813 20.0068 20.0161 20.0165 20.013 20.0085 20.0045 20.0016 19.9998 19.9989 19.9985 19.9986 19.9988 19.9991 19.9994 19.9997 20 20.0002 20.0003 20.0005 20.0005 20.0006 20.0006 20.0005 20.0003 20 19.9995 19.9988 19.9977 19.9965 19.9952 19.9944 19.995 19.9984 20.0066 20.0218 20.0458 20.0788 20.1166 20.1474 20.1472 20.0756 19.8733 19.4642 
19.491 19.4835 19.5865 19.7164 19.831 19.9153 19.969 19.9983 20.011 20.0139 20.0119 20.0083 20.0047 20.0019 20 19.999 19.9986 19.9986 19.9988 19.9992 19.9995 19.9999 20.0002 20.0004 20.0006 20.0008 20.001 20.0011 20.0011 20.0011 20.0009 20.0007 20.0002 19.9995 19.9984 19.997 19.9954 19.9941 19.9939 19.9963 20.0033 20.0176 20.0416 20.0767 20.1204 20.1632 20.1832 20.1411 19.9755 19.6029 
19.6319 19.5531 19.6109 19.7161 19.82 19.9018 19.9571 19.9895 20.0052 20.0105 20.0102 20.0076 20.0045 20.0019 20.0001 19.9991 19.9987 19.9987 19.9989 19.9993 19.9997 20.0002 20.0005 20.0009 20.0012 20.0014 20.0016 20.0018 20.0019 20.0019 20.0018 20.0015 20.0011 20.0003 19.9992 19.9976 19.9957 19.9939 19.9929 19.9942 19.9998 20.0128 20.0362 20.0725 20.1211 20.1748 20.2146 20.203 20.0783 19.7513 
19.7819 19.6336 19.6447 19.7225 19.8131 19.8904 19.9459 19.9805 19.9989 20.0065 20.008 20.0064 20.004 20.0018 20.0002 19.9992 19.9989 19.9989 19.9993 19.9997 20.0003 20.0008 20.0013 20.0017 20.0021 20.0024 20.0027 20.0029 20.0029 20.003 20.0028 20.0026 20.0021 20.0012 20 19.9983 19.9961 19.9937 19.9919 19.992 19.9961 20.0073 20.0295 20.0662 20.1185 20.1819 20.2405 20.2598 20.1791 19.9059 
19.9372 19.723 19.687 19.7355 19.8104 19.8812 19.9356 19.9716 19.9923 20.0021 20.0053 20.005 20.0034 20.0016 20.0003 19.9996 19.9994 19.9996 20.0001 20.0007 20.0014 20.002 20.0026 20.0031 20.0036 20.0039 20.0042 20.0043 20.0043 20.0042 20.004 20.0036 20.003 20.002 20.0006 19.9987 19.9962 19.9933 19.9906 19.9894 19.9918 20.0011 20.0216 20.0577 20.1126 20.1842 20.2602 20.31 20.2754 20.0628 
20.0941 19.8191 19.7369 19.7547 19.8121 19.8747 19.9266 19.9632 19.9856 19.9975 20.0025 20.0036 20.0029 20.0019 20.001 20.0006 20.0007 20.0011 20.0018 20.0026 20.0033 20.0041 20.0047 20.0053 20.0057 20.0059 20.006 20.006 20.0058 20.0055 20.0051 20.0044 20.0036 20.0024 20.0007 19.9985 19.9956 19.9921 19.9886 19.9862 19.9869 19.9941 20.0124 20.0472 20.1033 20.1814 20.2731 20.3523 20.3649 20.2181 
20.2487 19.9197 19.7932 19.78 19.8184 19.8713 19.9194 19.9558 19.9796 19.9934 20.0001 20.0028 20.0033 20.0031 20.0029 20.0029 20.0033 20.004 20.0048 20.0057 20.0065 20.0072 20.0077 20.0081 20.0083 20.0083 20.008 20.0076 20.007 20.0063 20.0054 20.0044 20.0031 20.0015 19.9995 19.997 19.9937 19.9898 19.9855 19.9819 19.981 19.986 20.0018 20.0347 20.0908 20.1738 20.2791 20.3858 20.4452 20.3681 
20.3971 20.0224 19.8549 19.8111 19.8298 19.8718 19.9152 19.9505 19.9753 19.9908 19.9994 20.0036 20.0054 20.0062 20.0066 20.0071 20.0078 20.0086 20.0095 20.0103 20.0109 20.0113 20.0115 20.0114 20.011 20.0104 20.0095 20.0084 20.0071 20.0057 20.0041 20.0025 20.0007 19.9986 19.9963 19.9934 19.9899 19.9856 19.9809 19.9764 19.9741 19.9771 19.9903 20.0207 20.0758 20.1617 20.2782 20.41 20.5147 20.509 
20.5358 20.1252 19.9213 19.8484 19.8473 19.8776 19.9154 19.9491 19.9744 19.9913 20.0016 20.0074 20.0105 20.0122 20.0133 20.0141 20.0148 20.0155 20.016 20.0163 20.0162 20.0159 20.0152 20.0141 20.0127 20.011 20.0091 20.0069 20.0046 20.0022 19.9998 19.9974 19.9951 19.9926 19.99 19.9871 19.9836 19.9794 19.9746 19.9698 19.9665 19.9679 19.9787 20.0063 20.0594 20.1465 20.2714 20.4247 20.572 20.6374 
20.6613 20.226 19.9919 19.8927 19.8725 19.8908 19.9225 19.9538 19.9791 19.9971 20.0089 20.016 20.0201 20.0223 20.0235 20.0241 20.0244 20.0242 20.0237 20.0227 20.0213 20.0194 20.0171 20.0144 20.0114 20.0081 20.0046 20.001 19.9974 19.994 19.9907 19.9877 19.9849 19.9824 19.98 19.9775 19.9747 19.9713 19.9672 19.9629 19.9596 19.96 19.969 19.9938 20.044 20.1303 20.2603 20.431 20.6162 20.7501 
20.7705 20.3234 20.0669 19.9453 19.9076 19.9144 19.9395 19.9678 19.9923 20.0107 20.023 20.0307 20.0349 20.0368 20.0373 20.0367 20.0353 20.0332 20.0305 20.0272 20.0233 20.0189 20.0141 20.009 20.0037 19.9983 19.9929 19.9878 19.983 19.9787 19.9749 19.9718 19.9694 19.9676 19.9663 19.9653 19.9643 19.9629 19.9608 19.9582 19.9561 19.9567 19.9645 19.9866 20.0332 20.1167 20.248 20.4306 20.6474 20.8443 
20.8607 20.4164 20.1468 20.0084 19.9559 19.9518 19.9699 19.9943 20.0167 20.0339 20.0454 20.0519 20.0547 20.0546 20.0526 20.049 20.0443 20.0386 20.0322 20.0251 20.0174 20.0094 20.0012 19.993 19.985 19.9774 19.9704 19.9641 19.9588 19.9545 19.9514 19.9495 19.9489 19.9494 19.951 19.9532 19.9557 19.958 19.9596 19.9604 19.961 19.963 19.9705 19.9902 20.0324 20.1104 20.2387 20.4263 20.6663 20.9178 
20.9298 20.5043 20.2328 20.0843 20.0203 20.0062 20.0167 20.0353 20.0534 20.0669 20.0748 20.0775 20.076 20.0713 20.0641 20.055 20.0446 20.0332 20.0212 20.0087 19.9961 19.9836 19.9716 19.9603 19.95 19.941 19.9334 19.9275 19.9235 19.9213 19.9212 19.923 19.9268 19.9323 19.9392 19.9472 19.9556 19.9639 19.9712 19.9772 19.9819 19.9866 19.9946 20.0118 20.0482 20.1178 20.2374 20.4219 20.6742 20.9686 
20.9759 20.5865 20.3255 20.1746 20.1026 20.0791 20.0801 20.09 20.0999 20.1055 20.1055 20.1002 20.0904 20.0771 20.0612 20.0435 20.0248 20.0055 19.9861 19.9672 19.9492 19.9325 19.9175 19.9045 19.8939 19.886 19.8808 19.8787 19.8795 19.8834 19.8902 19.8997 19.9118 19.9259 19.9418 19.9586 19.9756 19.9921 20.0069 20.0194 20.0292 20.037 20.0452 20.0589 20.0874 20.1445 20.2487 20.4202 20.6722 20.9956 
20.998 20.6616 20.4235 20.2776 20.2004 20.1664 20.1545 20.1505 20.1463 20.1378 20.1239 20.1047 20.0813 20.0548 20.0264 19.9971 19.9678 19.9393 19.9123 19.8877 19.8658 19.8473 19.8326 19.822 19.8159 19.8142 19.8172 19.8247 19.8366 19.8525 19.8721 19.8949 19.9203 19.9476 19.9761 20.0048 20.0327 20.0587 20.0816 20.1003 20.1143 20.1235 20.1296 20.1369 20.1534 20.1923 20.273 20.4203 20.6587 20.998 
20.9956 20.7253 20.5203 20.3844 20.3023 20.254 20.2228 20.1972 20.1705 20.1397 20.1042 20.0645 20.022 19.9781 19.9343 19.8919 19.852 19.8159 19.7843 19.7581 19.7379 19.7241 19.7172 19.7173 19.7244 19.7382 19.7585 19.7848 19.8164 19.8526 19.8924 19.9349 19.9791 20.0237 20.0676 20.1096 20.1484 20.1825 20.2108 20.232 20.2453 20.2504 20.2486 20.243 20.2405 20.253 20.3002 20.4111 20.6238 20.9759 
20.9686 20.7667 20.5983 20.4724 20.3807 20.3103 20.2499 20.192 20.1326 20.0704 20.0057 19.9399 19.8747 19.812 19.7536 19.7011 19.6559 19.6192 19.5919 19.5747 19.568 19.572 19.5865 19.6112 19.6455 19.6886 19.7393 19.7964 19.8586 19.9243 19.9918 20.0596 20.126 20.1892 20.2477 20.2999 20.3444 20.3796 20.4046 20.4181 20.4196 20.409 20.3873 20.3572 20.3241 20.2984 20.2988 20.3582 20.5343 20.9298 
20.9178 20.7593 20.6193 20.4947 20.3825 20.2774 20.1749 20.073 19.9711 19.8702 19.7722 19.6794 19.594 19.5183 19.4543 19.4037 19.3677 19.3473 19.343 19.3549 19.3827 19.4256 19.4828 19.5527 19.6336 19.7235 19.8203 19.9214 20.0246 20.1271 20.2265 20.3203 20.4063 20.4823 20.5463 20.5968 20.6324 20.6521 20.6552 20.6414 20.6108 20.5642 20.503 20.4298 20.349 20.2685 20.2031 20.1845 20.2918 20.8607 
20.8443 20.6374 20.509 20.3681 20.2181 20.0628 19.9059 19.7513 19.6029 19.4642 19.3387 19.2295 19.1393 19.0702 19.0241 19.002 19.0044 19.0314 19.0822 19.1557 19.2499 19.3626 19.491 19.6319 19.7819 19.9372 20.0941 20.2487 20.3971 20.5358 20.6613 20.7705 20.8607 20.9298 20.9759 20.998 20.9956 20.9686 20.9178 20.8443 20.7501 20.6374 20.509 20.3681 20.2181 20.0628 19.9059 19.7513 19.6029 20.7705 
