# vtk DataFile Version 3.0
Temperature distribution on a 2D grid
ASCII

DATASET STRUCTURED_POINTS
DIMENSIONS 50 50 1
ORIGIN 0.0 0.0 0.0
SPACING 0.01 0.01 1.0

POINT_DATA 2500
SCALARS temperature double
LOOKUP_TABLE default
20.7501 19.1557 19.0822 19.0314 19.0044 19.002 19.0241 19.0702 19.1393 19.2295 19.3387 19.4642 19.6029 19.7513 19.9059 20.0628 20.2181 20.3681 20.509 20.6374 20.7501 20.8443 20.9178 20.9686 20.9956 20.998 20.9759 20.9298 20.8607 20.7705 20.6613 20.5358 20.3971 20.2487 20.0941 19.9372 19.7819 19.6319 19.491 19.3626 19.2499 19.1557 19.0822 19.0314 19.0044 19.002 19.0241 19.0702 19.1393 19.3387 
20.6374 19.9054 19.6328 19.5049 19.4526 19.4472 19.4744 19.5258 19.5954 19.6787 19.7719 19.8717 19.9751 20.0791 20.181 20.2784 20.3689 20.4502 20.5203 20.5777 20.6207 20.6485 20.6604 20.656 20.6354 20.5992 20.5483 20.4839 20.4076 20.3213 20.2271 20.1274 20.0245 19.921 19.8195 19.7224 19.6321 19.5508 19.4808 19.4238 19.3818 19.3562 19.3485 19.3594 19.3884 19.4328 19.485 19.5295 19.537 19.4642 
20.509 20.2101 19.9979 19.8663 19.7984 19.7772 19.7896 19.8255 19.8772 19.9386 20.0052 20.0735 20.1407 20.2046 20.2632 20.3153 20.3593 20.3943 20.4196 20.4344 20.4386 20.4319 20.4147 20.3872 20.3502 20.3046 20.2516 20.1924 20.1285 20.0615 19.9931 19.9248 19.8585 19.7956 19.7378 19.6863 19.6426 19.6077 19.5826 19.5683 19.5661 19.577 19.6023 19.6425 19.6966 19.7601 19.8204 19.8518 19.8062 19.6029 
20.3681 20.314 20.1985 20.0942 20.0234 19.9877 19.9812 19.9962 20.0254 20.0628 20.1036 20.1444 20.1827 20.2166 20.2451 20.2673 20.2826 20.2907 20.2915 20.2851 20.2717 20.2515 20.2252 20.1933 20.1568 20.1164 20.0732 20.0282 19.9827 19.9376 19.8941 19.8533 19.8162 19.7837 19.7564 19.7351 19.7202 19.7121 19.7114 19.7186 19.7346 19.7606 19.7981 19.8484 19.911 19.981 20.0441 20.0698 20.0024 19.7513 
20.2181 20.3164 20.2846 20.2141 20.1483 20.1029 20.0802 20.0763 20.0857 20.1029 20.1235 20.1441 20.1624 20.1771 20.1873 20.1926 20.1928 20.188 20.1784 20.1643 20.1461 20.1243 20.0995 20.0723 20.0433 20.0133 19.983 19.9533 19.9247 19.8982 19.8742 19.8534 19.8363 19.8233 19.8146 19.8103 19.8106 19.8155 19.8251 19.8399 19.8608 19.8894 19.9279 19.9785 20.0418 20.1141 20.1819 20.2142 20.1532 19.9059 
20.0628 20.2641 20.2985 20.2605 20.2037 20.1538 20.1197 20.1017 20.0962 20.0987 20.1054 20.113 20.1195 20.1235 20.1244 20.1219 20.1161 20.1071 20.0952 20.0809 20.0646 20.0466 20.0275 20.0078 19.988 19.9685 19.9498 19.9325 19.9169 19.9035 19.8926 19.8844 19.8792 19.877 19.8779 19.8816 19.888 19.8969 19.9085 19.9232 19.9421 19.9671 20.0013 20.0478 20.1092 20.1835 20.2595 20.3085 20.274 20.0628 
19.9059 20.1821 20.2697 20.2616 20.2167 20.1668 20.1264 20.0991 20.0837 20.0768 20.075 20.0753 20.0756 20.0749 20.0722 20.0675 20.0608 20.0523 20.0422 20.031 20.0189 20.0064 19.9937 19.9812 19.9692 19.9581 19.948 19.9394 19.9323 19.927 19.9237 19.9224 19.9232 19.9258 19.9303 19.9364 19.9437 19.9521 19.9616 19.9727 19.9866 20.0058 20.0338 20.0751 20.1338 20.2106 20.2975 20.3695 20.3736 20.2181 
19.7513 20.0848 20.2171 20.2374 20.2065 20.1606 20.1181 20.0859 20.0647 20.0523 20.0458 20.0425 20.0405 20.0383 20.0353 20.0313 20.0261 20.02 20.0131 20.0057 19.9982 19.9906 19.9833 19.9764 19.9701 19.9647 19.9602 19.9567 19.9545 19.9536 19.9539 19.9556 19.9585 19.9624 19.9673 19.9728 19.9787 19.9846 19.9905 19.9971 20.0056 20.0186 20.0404 20.0764 20.1324 20.2119 20.3105 20.4081 20.4567 20.3681 
19.6029 19.9811 20.1524 20.2002 20.1852 20.1464 20.1053 20.0715 20.0474 20.0322 20.0235 20.0188 20.0163 20.0144 20.0126 20.0102 20.0073 20.0039 20.0001 19.9962 19.9922 19.9884 19.9849 19.9817 19.9791 19.977 19.9756 19.9749 19.9749 19.9758 19.9774 19.9797 19.9827 19.9863 19.9901 19.994 19.9976 20.0007 20.0032 20.0055 20.0092 20.0168 20.0329 20.0638 20.117 20.1984 20.308 20.4309 20.5255 20.509 
19.4642 19.8766 20.0822 20.1567 20.1592 20.13 20.0928 20.0597 20.035 20.0186 20.009 20.004 20.0018 20.0009 20.0004 19.9998 19.999 19.9979 19.9966 19.9951 19.9937 19.9923 19.9911 19.9902 19.9895 19.9891 19.9891 19.9895 19.9902 19.9914 19.993 19.9949 19.9972 19.9997 20.0021 20.0043 20.0059 20.0066 20.0063 20.0054 20.0051 20.0082 20.0193 20.0454 20.0951 20.1772 20.2956 20.4414 20.5804 20.6374 
19.3387 19.7753 20.0105 20.1106 20.1314 20.1135 20.0823 20.0516 20.0274 20.0109 20.0011 19.9962 19.9944 19.9944 19.995 19.9959 19.9966 19.9972 19.9975 19.9976 19.9977 19.9977 19.9978 19.9979 19.9981 19.9983 19.9987 19.9992 19.9999 20.0008 20.0018 20.0031 20.0044 20.0058 20.0071 20.008 20.0081 20.0072 20.005 20.0017 19.9985 19.9978 20.0044 20.0256 20.0712 20.1521 20.2764 20.4414 20.6213 20.7501 
19.2295 19.68 19.9397 20.0636 20.103 20.0974 20.0735 20.0465 20.0237 20.0076 19.9979 19.9931 19.9916 19.9921 19.9935 19.9953 19.997 19.9985 19.9998 20.0008 20.0017 20.0024 20.0029 20.0034 20.0038 20.0041 20.0044 20.0047 20.005 20.0054 20.0059 20.0064 20.007 20.0076 20.0081 20.0082 20.0075 20.0056 20.0023 19.9975 19.9921 19.9883 19.9908 20.0069 20.0473 20.125 20.2518 20.4316 20.6474 20.8443 
19.1393 19.5932 19.8714 20.0166 20.074 20.0814 20.0656 20.043 20.0224 20.007 19.9974 19.9926 19.9912 19.992 19.9938 19.996 19.9982 20.0002 20.0019 20.0033 20.0045 20.0054 20.006 20.0065 20.0068 20.007 20.007 20.007 20.0069 20.0069 20.0069 20.0069 20.007 20.0072 20.0073 20.007 20.0059 20.0037 19.9998 19.9941 19.9871 19.9808 19.9793 19.9901 20.0243 20.0967 20.2227 20.4124 20.6581 20.9178 
19.0702 19.5168 19.807 19.9703 20.0446 20.0649 20.0577 20.0402 20.022 20.0077 19.9984 19.9935 19.992 19.9926 19.9945 19.9968 19.9992 20.0013 20.0032 20.0047 20.0059 20.0067 20.0073 20.0076 20.0078 20.0077 20.0075 20.0072 20.0069 20.0065 20.0062 20.006 20.0059 20.0059 20.0058 20.0055 20.0044 20.0022 19.9982 19.992 19.9839 19.9754 19.9702 19.9754 20.0026 20.0677 20.1895 20.3839 20.6532 20.9686 
19.0241 19.4525 19.7479 19.9254 20.0149 20.0477 20.0493 20.0371 20.0219 20.0088 19.9997 19.9947 19.993 19.9934 19.995 19.9973 19.9996 20.0017 20.0035 20.005 20.006 20.0068 20.0072 20.0074 20.0074 20.0072 20.0068 20.0064 20.0059 20.0053 20.0049 20.0046 20.0045 20.0044 20.0045 20.0043 20.0035 20.0015 19.9976 19.9913 19.9823 19.9719 19.9631 19.9627 19.9821 20.0382 20.1525 20.3467 20.6325 20.9956 
19.002 19.4017 19.6952 19.8825 19.9851 20.0296 20.0399 20.0334 20.0213 20.0097 20.001 19.9959 19.9939 19.9939 19.9953 19.9973 19.9994 20.0014 20.0031 20.0044 20.0054 20.006 20.0064 20.0065 20.0063 20.006 20.0056 20.005 20.0045 20.0039 20.0035 20.0032 20.0031 20.0032 20.0034 20.0034 20.0029 20.0013 19.9978 19.9915 19.982 19.9699 19.9578 19.9517 19.9627 20.0084 20.1123 20.3013 20.5964 20.998 
19.0044 19.3658 19.65 19.8427 19.9557 20.0108 20.0295 20.0288 20.0201 20.0101 20.0021 19.9969 19.9945 19.9942 19.9953 19.997 19.9989 20.0007 20.0022 20.0034 20.0043 20.0049 20.0051 20.0052 20.005 20.0047 20.0042 20.0037 20.0031 20.0026 20.0022 20.002 20.002 20.0022 20.0026 20.0029 20.0028 20.0015 19.9984 19.9923 19.9825 19.9691 19.9539 19.9423 19.9447 19.9787 20.0696 20.2486 20.5458 20.9759 
19.0314 19.3454 19.6134 19.8066 19.9273 19.9916 20.0182 20.0232 20.0181 20.01 20.0027 19.9977 19.995 19.9944 19.995 19.9964 19.9981 19.9997 20.0011 20.0023 20.0031 20.0036 20.0038 20.0038 20.0037 20.0033 20.0029 20.0024 20.0019 20.0015 20.0012 20.001 20.0011 20.0014 20.002 20.0025 20.0027 20.0019 19.9992 19.9935 19.9836 19.9692 19.9513 19.9344 19.9281 19.9496 20.0252 20.1899 20.4817 20.9298 
19.0822 19.3412 19.5862 19.7752 19.9006 19.9724 20.0063 20.0169 20.0154 20.0094 20.0031 19.9982 19.9954 19.9945 19.9948 19.9959 19.9973 19.9988 20.0001 20.0011 20.0019 20.0023 20.0026 20.0026 20.0025 20.0022 20.0019 20.0014 20.001 20.0006 20.0004 20.0003 20.0004 20.0008 20.0015 20.0022 20.0027 20.0023 20.0001 19.9948 19.9851 19.9699 19.9498 19.928 19.9132 19.9216 19.9801 20.1265 20.4057 20.8607 
19.1557 19.3531 19.5692 19.7492 19.8762 19.9538 19.994 20.0099 20.0122 20.0084 20.0032 19.9987 19.9958 19.9946 19.9946 19.9954 19.9966 19.9979 19.9991 20.0001 20.0008 20.0013 20.0015 20.0016 20.0015 20.0013 20.001 20.0007 20.0003 20 19.9997 19.9997 19.9998 20.0002 20.0009 20.0018 20.0025 20.0025 20.0008 19.9961 19.9867 19.9712 19.9493 19.9232 19.9002 19.8955 19.9355 20.0598 20.3197 20.7705 
19.2499 19.3809 19.5627 19.7294 19.8547 19.9361 19.9817 20.0025 20.0085 20.0071 20.003 19.9991 19.9963 19.9948 19.9946 19.9951 19.9961 19.9972 19.9983 19.9992 19.9999 20.0004 20.0007 20.0008 20.0008 20.0007 20.0004 20.0001 19.9998 19.9995 19.9993 19.9992 19.9993 19.9997 20.0004 20.0013 20.0022 20.0025 20.0013 19.9972 19.9884 19.973 19.9499 19.9201 19.8895 19.8717 19.8923 19.9916 20.2258 20.6613 
19.3626 19.4239 19.567 19.7161 19.8367 19.92 19.9698 19.995 20.0045 20.0054 20.0028 19.9994 19.9968 19.9952 19.9947 19.995 19.9958 19.9968 19.9978 19.9986 19.9993 19.9998 20.0001 20.0003 20.0003 20.0002 20 19.9997 19.9994 19.9991 19.9989 19.9987 19.9988 19.9991 19.9997 20.0007 20.0017 20.0023 20.0017 19.9983 19.9902 19.9752 19.9515 19.9188 19.8814 19.851 19.8516 19.9236 20.1263 20.5358 
19.491 19.4811 19.5818 19.7097 19.8227 19.9057 19.9586 19.9875 20.0003 20.0037 20.0025 19.9998 19.9974 19.9958 19.9951 19.9952 19.9957 19.9965 19.9974 19.9982 19.9988 19.9993 19.9997 19.9998 19.9999 19.9998 19.9997 19.9995 19.9992 19.9989 19.9986 19.9984 19.9983 19.9985 19.999 19.9999 20.001 20.0019 20.0018 19.9992 19.9921 19.9779 19.9541 19.9193 19.876 19.8338 19.8145 19.8573 20.0237 20.3971 
19.6319 19.5511 19.607 19.7105 19.813 19.8937 19.9483 19.9803 19.9961 20.0017 20.0021 20.0002 19.9981 19.9965 19.9956 19.9955 19.9959 19.9965 19.9972 19.9979 19.9985 19.999 19.9994 19.9996 19.9997 19.9996 19.9995 19.9993 19.999 19.9987 19.9983 19.998 19.9979 19.9979 19.9983 19.9991 20.0002 20.0013 20.0017 20 19.994 19.981 19.9577 19.9217 19.8736 19.8206 19.7818 19.7945 19.9204 20.2487 
19.7819 19.6321 19.6418 19.7183 19.8078 19.8843 19.9392 19.9736 19.9919 19.9998 20.0016 20.0006 19.9988 19.9973 19.9963 19.996 19.9961 19.9966 19.9972 19.9978 19.9984 19.9989 19.9992 19.9994 19.9995 19.9995 19.9994 19.9992 19.9989 19.9986 19.9982 19.9978 19.9975 19.9974 19.9976 19.9982 19.9993 20.0006 20.0015 20.0007 19.996 19.9844 19.9622 19.9259 19.8742 19.8118 19.7545 19.7367 19.8191 20.0941 
19.9372 19.7222 19.6854 19.7331 19.8074 19.8777 19.9316 19.9674 19.9879 19.9977 20.001 20.0009 19.9996 19.9981 19.9971 19.9966 19.9965 19.9968 19.9973 19.9978 19.9983 19.9988 19.9991 19.9993 19.9995 19.9995 19.9994 19.9992 19.9989 19.9985 19.9981 19.9976 19.9971 19.9969 19.9969 19.9974 19.9984 19.9999 20.0012 20.0013 19.998 19.9882 19.9676 19.9318 19.8778 19.8075 19.7332 19.6854 19.7222 19.9372 
20.0941 19.819 19.7367 19.7544 19.8116 19.874 19.9256 19.9619 19.9841 19.9957 20.0003 20.0012 20.0003 19.999 19.9979 19.9972 19.997 19.9971 19.9975 19.9979 19.9984 19.9988 19.9991 19.9994 19.9995 19.9996 19.9995 19.9993 19.9991 19.9986 19.9981 19.9975 19.9969 19.9965 19.9963 19.9967 19.9976 19.9991 20.0009 20.0019 20 19.9922 19.9738 19.9394 19.8844 19.8079 19.7184 19.6418 19.6321 19.7819 
20.2487 19.9203 19.7944 19.7817 19.8204 19.8733 19.9214 19.9573 19.9806 19.9936 19.9996 20.0013 20.0009 19.9998 19.9987 19.9979 19.9975 19.9975 19.9977 19.9981 19.9985 19.9989 19.9992 19.9995 19.9997 19.9997 19.9997 19.9996 19.9993 19.9989 19.9983 19.9976 19.9969 19.9963 19.9959 19.996 19.9968 19.9984 20.0006 20.0024 20.002 19.9963 19.9805 19.9484 19.8938 19.8131 19.7106 19.607 19.5511 19.6319 
20.3971 20.0236 19.8572 19.8142 19.8335 19.8757 19.9189 19.9536 19.9774 19.9916 19.9986 20.0012 20.0013 20.0005 19.9994 19.9985 19.998 19.9979 19.998 19.9983 19.9986 19.999 19.9994 19.9997 19.9999 20 20.0001 19.9999 19.9997 19.9992 19.9986 19.9979 19.997 19.9962 19.9957 19.9956 19.9962 19.9978 20.0002 20.0028 20.0039 20.0006 19.9877 19.9587 19.9058 19.8228 19.7098 19.5819 19.4812 19.491 
20.5358 20.1262 19.9234 19.8513 19.8506 19.8809 19.9183 19.9508 19.9746 19.9895 19.9976 20.0009 20.0016 20.001 20 19.9991 19.9985 19.9983 19.9983 19.9985 19.9989 19.9993 19.9997 20 20.0003 20.0005 20.0006 20.0005 20.0003 19.9998 19.9992 19.9984 19.9974 19.9964 19.9956 19.9953 19.9958 19.9973 19.9999 20.0032 20.0058 20.0047 19.9952 19.97 19.9201 19.8368 19.7161 19.567 19.4239 19.3626 
20.6613 20.2257 19.9914 19.8918 19.8712 19.8889 19.9194 19.9491 19.9721 19.9875 19.9963 20.0004 20.0016 20.0013 20.0005 19.9996 19.999 19.9987 19.9987 19.9989 19.9992 19.9997 20.0001 20.0005 20.0009 20.0011 20.0013 20.0013 20.0011 20.0006 20 19.9991 19.998 19.9969 19.9958 19.9953 19.9955 19.9968 19.9996 20.0035 20.0074 20.0087 20.0027 19.9819 19.9362 19.8547 19.7294 19.5627 19.3809 19.2499 
20.7705 20.3196 20.0595 19.9349 19.8948 19.8994 19.9223 19.9483 19.9701 19.9856 19.9949 19.9997 20.0014 20.0015 20.0008 20.0001 19.9995 19.9991 19.9991 19.9994 19.9997 20.0002 20.0007 20.0012 20.0017 20.002 20.0022 20.0022 20.0021 20.0017 20.001 20 19.9988 19.9975 19.9963 19.9954 19.9953 19.9964 19.9992 20.0036 20.0087 20.0124 20.01 19.9941 19.9538 19.8762 19.7492 19.5692 19.3531 19.1557 
20.8607 20.4055 20.126 19.9795 19.9208 19.9122 19.9269 19.9486 19.9686 19.9837 19.9934 19.9988 20.001 20.0015 20.0011 20.0005 20 19.9997 19.9997 20 20.0004 20.001 20.0016 20.0022 20.0027 20.0031 20.0034 20.0034 20.0033 20.0029 20.0021 20.0011 19.9998 19.9983 19.9968 19.9956 19.9952 19.996 19.9987 20.0034 20.0097 20.0156 20.0169 20.0063 19.9724 19.9006 19.7752 19.5862 19.3411 19.0822 
20.9298 20.4814 20.1894 20.0245 19.9486 19.927 19.9331 19.9499 19.9677 19.9821 19.992 19.9978 20.0006 20.0015 20.0014 20.001 20.0006 20.0004 20.0005 20.0009 20.0014 20.002 20.0027 20.0034 20.004 20.0044 20.0047 20.0048 20.0046 20.0042 20.0034 20.0022 20.0008 19.9991 19.9973 19.9958 19.995 19.9956 19.9981 20.003 20.0102 20.0182 20.0232 20.0182 19.9915 19.9272 19.8065 19.6133 19.3454 19.0314 
20.9759 20.5455 20.2481 20.0688 19.9777 19.9436 19.941 19.9525 19.9676 19.9811 19.9908 19.997 20.0002 20.0016 20.0018 20.0017 20.0015 20.0014 20.0016 20.002 20.0026 20.0033 20.004 20.0047 20.0053 20.0058 20.0061 20.0061 20.0059 20.0053 20.0045 20.0032 20.0016 19.9997 19.9977 19.9959 19.9947 19.9949 19.9972 20.0022 20.0101 20.0201 20.0287 20.0294 20.0107 19.9556 19.8426 19.6499 19.3658 19.0044 
20.998 20.5962 20.3009 20.1117 20.0076 19.9618 19.9507 19.9567 19.9687 19.9808 19.9903 19.9966 20.0003 20.002 20.0026 20.0027 20.0027 20.0027 20.003 20.0034 20.004 20.0047 20.0054 20.006 20.0066 20.007 20.0071 20.0071 20.0068 20.0061 20.0051 20.0037 20.002 19.9999 19.9977 19.9956 19.9941 19.9939 19.996 20.001 20.0096 20.0212 20.0334 20.0399 20.0296 19.9851 19.8826 19.6952 19.4018 19.002 
20.9956 20.6325 20.3466 20.1523 20.0379 19.9817 19.9623 19.9626 19.9713 19.9818 19.9907 19.997 20.0009 20.003 20.0039 20.0041 20.0042 20.0042 20.0045 20.0048 20.0053 20.0058 20.0064 20.0069 20.0073 20.0075 20.0075 20.0073 20.0069 20.0061 20.005 20.0035 20.0017 19.9995 19.9972 19.9949 19.9932 19.9928 19.9946 19.9996 20.0088 20.022 20.0373 20.0496 20.0481 20.0153 19.9257 19.7482 19.4526 19.0241 
20.9686 20.6534 20.3844 20.1901 20.0685 20.0034 19.9762 19.9709 19.976 19.9844 19.9925 19.9985 20.0025 20.0046 20.0055 20.0058 20.0058 20.0057 20.0056 20.0057 20.0059 20.0062 20.0064 20.0066 20.0068 20.0067 20.0066 20.0062 20.0056 20.0048 20.0037 20.0022 20.0004 19.9984 19.9961 19.9939 19.9922 19.9917 19.9935 19.9986 20.0082 20.0228 20.0411 20.0588 20.0661 20.0458 19.9713 19.8078 19.5172 19.0702 
20.9178 20.6589 20.4137 20.2246 20.099 20.0269 19.9927 19.9818 19.9831 19.9892 19.9958 20.0012 20.0047 20.0066 20.0073 20.0072 20.0068 20.0062 20.0057 20.0053 20.005 20.0047 20.0045 20.0044 20.0042 20.0039 20.0036 20.0031 20.0026 20.0019 20.0009 19.9998 19.9984 19.9967 19.9949 19.9931 19.9917 19.9915 19.9934 19.9986 20.0087 20.0245 20.0455 20.0683 20.0841 20.0765 20.0187 19.8729 19.594 19.1393 
20.8443 20.6487 20.4342 20.2555 20.1294 20.0521 20.0118 19.9955 19.9927 19.9959 20.0006 20.0046 20.0072 20.0082 20.0081 20.0072 20.0059 20.0045 20.0032 20.002 20.001 20.0001 19.9994 19.9989 19.9985 19.9981 19.9979 19.9977 19.9975 19.9973 19.997 19.9967 19.9961 19.9954 19.9945 19.9936 19.993 19.9934 19.9957 20.0013 20.0118 20.0285 20.0516 20.0788 20.1026 20.1076 20.0674 19.9424 19.6814 19.2295 
20.7501 20.6234 20.4455 20.2821 20.1589 20.0786 20.0331 20.0115 20.0041 20.0036 20.0055 20.0074 20.0081 20.0076 20.006 20.0037 20.0011 19.9985 19.9961 19.9939 19.9921 19.9908 19.9897 19.9891 19.9888 19.9889 19.9893 19.99 19.9909 19.9919 19.9931 19.9942 19.9953 19.9962 19.9969 19.9975 19.9982 19.9995 20.0026 20.0086 20.0193 20.0365 20.061 20.0915 20.1221 20.1389 20.1165 20.0145 19.7773 19.3387 
20.6374 20.5833 20.4468 20.303 20.1861 20.1046 20.0546 20.0276 20.015 20.0099 20.008 20.0066 20.0045 20.0015 19.9977 19.9935 19.9893 19.9852 19.9817 19.9788 19.9766 19.9752 19.9745 19.9746 19.9754 19.9769 19.9789 19.9816 19.9847 19.9881 19.9917 19.9954 19.999 20.0023 20.0053 20.0079 20.0102 20.0129 20.0166 20.0227 20.0332 20.0499 20.0745 20.1068 20.1424 20.1695 20.1645 20.0872 19.879 19.4642 
20.509 20.5284 20.4364 20.3156 20.2074 20.1262 20.0722 20.0395 20.0208 20.0101 20.0031 19.9972 19.9914 19.9852 19.9788 19.9725 19.9666 19.9616 19.9576 19.9548 19.9532 19.953 19.9541 19.9564 19.96 19.9645 19.97 19.9762 19.9831 19.9903 19.9977 20.0051 20.0121 20.0185 20.0242 20.029 20.033 20.0365 20.0404 20.0458 20.0547 20.0695 20.0922 20.1239 20.1619 20.197 20.208 20.1567 19.9828 19.6029 
20.3681 20.4582 20.411 20.3146 20.2164 20.1363 20.0784 20.0394 20.0137 19.9962 19.9831 19.9721 19.962 19.9525 19.9438 19.9361 19.9297 19.9251 19.9224 19.9217 19.9231 19.9266 19.932 19.9391 19.9479 19.958 19.9691 19.9811 19.9936 20.0062 20.0186 20.0304 20.0413 20.051 20.0591 20.0654 20.0699 20.073 20.0752 20.0779 20.083 20.093 20.1108 20.1385 20.1754 20.2152 20.2405 20.2163 20.0831 19.7513 
20.2181 20.3703 20.3639 20.2904 20.202 20.123 20.0609 20.0152 19.982 19.9574 19.9381 19.9221 19.9086 19.8972 19.888 19.8813 19.8774 19.8765 19.8786 19.8838 19.8921 19.9031 19.9166 19.9323 19.9497 19.9684 19.9879 20.0078 20.0275 20.0465 20.0643 20.0805 20.0945 20.106 20.1145 20.12 20.1223 20.1217 20.1189 20.1151 20.1124 20.1136 20.1221 20.141 20.1721 20.2124 20.2496 20.2545 20.171 19.9059 
20.0628 20.2599 20.2839 20.2282 20.1473 20.0686 20.0025 19.9506 19.9108 19.8803 19.8567 19.8386 19.8249 19.8156 19.8107 19.8102 19.8142 19.8228 19.8358 19.8529 19.8738 19.8978 19.9245 19.9531 19.9829 20.0132 20.0432 20.0722 20.0994 20.1242 20.1459 20.1639 20.1778 20.1871 20.1915 20.191 20.1855 20.1755 20.1617 20.1457 20.1294 20.116 20.1094 20.1139 20.1333 20.1689 20.215 20.2516 20.2316 20.0628 
19.9059 20.1173 20.1531 20.1055 20.0286 19.9501 19.8817 19.8266 19.7843 19.7529 19.731 19.7173 19.7111 19.7122 19.7202 19.7349 19.7561 19.7833 19.8159 19.853 19.8938 19.9373 19.9825 20.0281 20.0731 20.1163 20.1567 20.1933 20.2251 20.2514 20.2715 20.2848 20.2911 20.29 20.2815 20.2659 20.2436 20.2152 20.182 20.1456 20.1084 20.0736 20.0456 20.0294 20.031 20.0558 20.1061 20.1762 20.2389 20.2181 
19.7513 19.9253 19.9447 19.8931 19.8174 19.742 19.6775 19.6276 19.5926 19.5715 19.5635 19.5673 19.5823 19.6076 19.6426 19.6863 19.7376 19.7954 19.8582 19.9246 19.9929 20.0614 20.1284 20.1923 20.2516 20.3046 20.3502 20.3872 20.4146 20.4319 20.4385 20.4343 20.4193 20.3939 20.3586 20.3143 20.2622 20.2036 20.1402 20.0743 20.0086 19.9464 19.8922 19.8512 19.8303 19.8377 19.8841 19.9822 20.1437 20.3681 
19.6029 19.6515 19.6217 19.5569 19.4863 19.4247 19.3791 19.3519 19.3435 19.3534 19.3804 19.4233 19.4806 19.5508 19.6321 19.7223 19.8194 19.9209 20.0244 20.1272 20.227 20.3212 20.4076 20.4839 20.5483 20.5992 20.6354 20.656 20.6604 20.6485 20.6207 20.5776 20.5202 20.4499 20.3685 20.278 20.1805 20.0785 19.9748 19.8721 19.7737 19.6829 19.6035 19.5401 19.4981 19.4853 19.5145 19.612 19.8422 20.509 
19.4642 19.2295 19.1393 19.0702 19.0241 19.002 19.0044 19.0314 19.0822 19.1557 19.2499 19.3626 19.491 19.6319 19.7819 19.9372 20.0941 20.2487 20.3971 20.5358 20.6613 20.7705 20.8607 20.9298 20.9759 20.998 20.9956 20.9686 20.9178 20.8443 20.7501 20.6374 20.509 20.3681 20.2181 20.0628 19.9059 19.7513 19.6029 19.4642 19.3387 19.2295 19.1393 19.0702 19.0241 19.002 19.0044 19.0314 19.0822 20.6374 
