# vtk DataFile Version 3.0
Temperature distribution on a 2D grid
ASCII

DATASET STRUCTURED_POINTS
DIMENSIONS 50 50 1
ORIGIN 0.0 0.0 0.0
SPACING 0.01 0.01 1.0

POINT_DATA 2500
SCALARS temperature double
LOOKUP_TABLE default
20.1564 19.691 19.546 19.4122 19.2929 19.191 19.109 19.0489 19.0123 19 19.0123 19.0489 19.109 19.191 19.2929 19.4122 19.546 19.691 19.8436 20 20.1564 20.309 20.454 20.5878 20.7071 20.809 20.891 20.9511 20.9877 21 20.9877 20.9511 20.891 20.809 20.7071 20.5878 20.454 20.309 20.1564 20 19.8436 19.691 19.546 19.4122 19.2929 19.191 19.109 19.0489 19.0123 19.0123 
20 19.8145 19.6757 19.5628 19.4756 19.4135 19.3755 19.3601 19.3657 19.3907 19.433 19.4907 19.5618 19.6441 19.7353 19.833 19.9349 20.0382 20.1406 20.2395 20.3325 20.4173 20.4918 20.5542 20.603 20.6369 20.6551 20.6573 20.6432 20.6133 20.5684 20.5094 20.4379 20.3556 20.2645 20.1669 20.0652 19.962 19.86 19.7619 19.6705 19.5882 19.5172 19.4586 19.4118 19.3736 19.3361 19.2854 19.2 19.0489 
19.8436 19.8804 19.8297 19.7603 19.6996 19.6578 19.6374 19.6374 19.6552 19.6881 19.7329 19.787 19.8479 19.9134 19.9812 20.0496 20.1167 20.1809 20.2405 20.2941 20.3404 20.3784 20.407 20.4256 20.4337 20.4312 20.418 20.3946 20.3615 20.3195 20.2697 20.2132 20.1515 20.086 20.0183 19.9502 19.8833 19.8195 19.7607 19.7086 19.6653 19.6323 19.6107 19.6001 19.5972 19.5941 19.5753 19.5149 19.3755 19.109 
19.691 19.8905 19.9378 19.9212 19.8872 19.858 19.8425 19.8428 19.8575 19.8838 19.9187 19.9591 20.0027 20.0474 20.0913 20.133 20.1714 20.2055 20.2344 20.2574 20.2741 20.2839 20.2868 20.2826 20.2714 20.2536 20.2296 20.1999 20.1654 20.1268 20.0851 20.0414 19.9965 19.9518 19.9081 19.8667 19.8286 19.7949 19.767 19.7462 19.7338 19.7311 19.7388 19.7558 19.7773 19.7928 19.7819 19.7113 19.5337 19.191 
19.546 19.8585 19.9887 20.0224 20.0141 19.9947 19.9796 19.9746 19.9804 19.9953 20.0167 20.042 20.0687 20.0951 20.1197 20.1416 20.1599 20.1741 20.1838 20.189 20.1894 20.1851 20.1762 20.163 20.1458 20.1251 20.1013 20.075 20.047 20.0178 19.9882 19.9589 19.9306 19.9039 19.8795 19.858 19.84 19.8263 19.8176 19.815 19.8198 19.8332 19.856 19.887 19.9215 19.9477 19.9431 19.8704 19.6757 19.2929 
19.4122 19.7987 19.9921 20.0685 20.0836 20.0734 20.0581 20.0472 20.0438 20.0477 20.0569 20.0692 20.0827 20.0957 20.1071 20.116 20.122 20.1249 20.1245 20.121 20.1144 20.1049 20.0928 20.0785 20.0622 20.0444 20.0256 20.0062 19.9867 19.9676 19.9493 19.9322 19.9168 19.9034 19.8922 19.8835 19.8777 19.8752 19.8765 19.8828 19.8952 19.9153 19.9442 19.9814 20.0229 20.0572 20.0615 19.9967 19.805 19.4122 
19.2929 19.7237 19.9624 20.0732 20.1092 20.1084 20.0942 20.0792 20.0687 20.0639 20.0639 20.067 20.0714 20.0759 20.0792 20.0809 20.0807 20.0783 20.0738 20.0673 20.0591 20.0494 20.0385 20.0266 20.0141 20.0012 19.9884 19.9759 19.9641 19.9532 19.9435 19.9352 19.9285 19.9234 19.9201 19.9185 19.9189 19.9214 19.9267 19.9357 19.9498 19.971 20.001 20.0404 20.0861 20.1282 20.145 20.0972 19.9247 19.546 
19.191 19.6436 19.9131 20.051 20.1056 20.1146 20.1034 20.0868 20.072 20.0616 20.0555 20.0527 20.0517 20.0513 20.0506 20.0491 20.0463 20.0423 20.0371 20.0309 20.0238 20.0161 20.0079 19.9996 19.9912 19.9832 19.9756 19.9686 19.9625 19.9574 19.9534 19.9505 19.9488 19.9483 19.9488 19.9504 19.953 19.9568 19.9624 19.9707 19.9834 20.0029 20.0315 20.071 20.1199 20.1703 20.2024 20.1784 20.037 19.691 
19.109 19.5656 19.8545 20.0136 20.0848 20.1042 20.0978 20.0819 20.0654 20.052 20.0425 20.0364 20.0326 20.0299 20.0276 20.0251 20.0221 20.0184 20.0142 20.0095 20.0044 19.9992 19.994 19.9889 19.9841 19.9797 19.9759 19.9728 19.9703 19.9687 19.9679 19.9679 19.9687 19.9701 19.972 19.9743 19.977 19.9801 19.9842 19.9904 20.0003 20.0168 20.043 20.0817 20.1332 20.192 20.241 20.245 20.1429 19.8436 
19.0489 19.4951 19.794 19.9692 20.0552 20.0853 20.0852 20.072 20.0558 20.0414 20.0304 20.0228 20.0178 20.0144 20.0118 20.0095 20.0072 20.0046 20.0019 19.9989 19.9959 19.9929 19.9901 19.9875 19.9852 19.9833 19.9819 19.981 19.9806 19.9808 19.9815 19.9827 19.9842 19.9861 19.988 19.9899 19.9916 19.9933 19.9954 19.9989 20.0058 20.019 20.0423 20.0797 20.1332 20.2 20.2663 20.3001 20.2424 20 
19.0123 19.4358 19.7364 19.9231 20.0222 20.063 20.0701 20.061 20.0466 20.0326 20.0214 20.0134 20.008 20.0046 20.0024 20.0008 19.9994 19.998 19.9966 19.9952 19.9938 19.9924 19.9913 19.9903 19.9896 19.9891 19.989 19.9892 19.9898 19.9906 19.9918 19.9932 19.9947 19.9963 19.9977 19.9987 19.9992 19.9993 19.9994 20.0004 20.0044 20.0144 20.0347 20.0703 20.1251 20.1988 20.2815 20.3453 20.3347 20.1564 
19 19.39 19.6849 19.8787 19.9888 20.0399 20.0547 20.0506 20.039 20.0264 20.0156 20.0078 20.0026 19.9995 19.9977 19.9967 19.9961 19.9957 19.9954 19.9951 19.9947 19.9945 19.9943 19.9943 19.9944 19.9947 19.9951 19.9957 19.9965 19.9974 19.9985 19.9997 20.0009 20.0019 20.0026 20.0027 20.0022 20.001 19.9994 19.9984 19.9997 20.0067 20.0239 20.0572 20.1122 20.1914 20.2887 20.3813 20.4183 20.309 
19.0123 19.3594 19.6414 19.8379 19.9567 20.0172 20.0398 20.0413 20.0331 20.0223 20.0125 20.0052 20.0002 19.9974 19.996 19.9955 19.9955 19.9957 19.9961 19.9964 19.9968 19.9971 19.9975 19.9979 19.9983 19.9988 19.9994 20 20.0007 20.0015 20.0023 20.0031 20.0038 20.0043 20.0044 20.004 20.0027 20.0005 19.9977 19.9949 19.994 19.9982 20.0122 20.0426 20.0966 20.1794 20.289 20.4081 20.4917 20.454 
19.0489 19.3449 19.6073 19.8019 19.9267 19.9955 20.0256 20.0327 20.0283 20.0197 20.0112 20.0044 19.9998 19.9971 19.9959 19.9957 19.996 19.9967 19.9974 19.9981 19.9987 19.9994 19.9999 20.0005 20.001 20.0015 20.002 20.0024 20.0029 20.0034 20.0039 20.0044 20.0047 20.0048 20.0046 20.0037 20.002 19.9993 19.9956 19.9915 19.9887 19.9901 20.0007 20.0277 20.0794 20.1637 20.2827 20.4252 20.5532 20.5878 
19.109 19.3467 19.5833 19.7714 19.8994 19.9749 20.0119 20.0245 20.024 20.0179 20.0107 20.0045 20.0002 19.9977 19.9966 19.9965 19.9969 19.9977 19.9985 19.9994 20.0001 20.0008 20.0015 20.002 20.0024 20.0028 20.0032 20.0034 20.0037 20.004 20.0042 20.0044 20.0045 20.0045 20.004 20.003 20.0011 19.998 19.9938 19.9887 19.9842 19.983 19.9901 20.013 20.0611 20.1447 20.2702 20.4323 20.6013 20.7071 
19.191 19.3647 19.5699 19.747 19.8752 19.9555 19.9986 20.0165 20.0199 20.0163 20.0105 20.0051 20.001 19.9986 19.9974 19.9973 19.9977 19.9984 19.9993 20.0002 20.0009 20.0016 20.0022 20.0026 20.003 20.0032 20.0034 20.0036 20.0037 20.0037 20.0038 20.0038 20.0038 20.0037 20.0032 20.0022 20.0003 19.9971 19.9926 19.9867 19.9807 19.9771 19.9806 19.9988 20.0421 20.1229 20.2515 20.4291 20.6348 20.809 
19.2929 19.3985 19.5673 19.7291 19.8543 19.9377 19.9856 20.0084 20.0155 20.0145 20.0102 20.0056 20.0018 19.9994 19.9982 19.9979 19.9982 19.9989 19.9997 20.0005 20.0012 20.0018 20.0023 20.0026 20.0029 20.0031 20.0031 20.0032 20.0031 20.0031 20.0031 20.0031 20.003 20.0029 20.0025 20.0016 19.9998 19.9967 19.992 19.9857 19.9784 19.9724 19.9721 19.9852 20.0226 20.0986 20.2271 20.4157 20.6528 20.891 
19.4122 19.4471 19.5753 19.7179 19.8371 19.9215 19.9732 20.0002 20.0108 20.0123 20.0096 20.0058 20.0024 20 19.9987 19.9983 19.9985 19.999 19.9997 20.0004 20.0011 20.0016 20.002 20.0023 20.0025 20.0026 20.0026 20.0026 20.0025 20.0024 20.0023 20.0023 20.0023 20.0022 20.0019 20.0012 19.9996 19.9967 19.992 19.9853 19.977 19.9688 19.9648 19.9724 20.003 20.0721 20.1973 20.3922 20.6549 20.9511 
19.546 19.5093 19.5939 19.7138 19.824 19.9072 19.9614 19.9919 20.0058 20.0098 20.0087 20.0058 20.0028 20.0005 19.9991 19.9986 19.9986 19.999 19.9996 20.0002 20.0007 20.0012 20.0016 20.0018 20.002 20.002 20.002 20.0019 20.0018 20.0017 20.0016 20.0016 20.0016 20.0016 20.0015 20.0009 19.9996 19.997 19.9925 19.9856 19.9764 19.9662 19.9586 19.9605 19.9834 20.0441 20.1628 20.3591 20.6409 20.9877 
19.691 19.5837 19.6225 19.7167 19.8152 19.8952 19.9505 19.9838 20.0006 20.0069 20.0074 20.0055 20.0029 20.0008 19.9993 19.9987 19.9986 19.9988 19.9993 19.9998 20.0003 20.0007 20.0011 20.0013 20.0014 20.0014 20.0014 20.0013 20.0012 20.0011 20.001 20.001 20.001 20.0011 20.0011 20.0008 19.9998 19.9975 19.9932 19.9863 19.9764 19.9645 19.9534 19.9496 19.9643 20.015 20.1244 20.3173 20.6111 21 
19.8436 19.6682 19.6603 19.7265 19.8109 19.8857 19.9408 19.9759 19.9952 20.0037 20.0058 20.0049 20.0028 20.0009 19.9995 19.9987 19.9985 19.9986 19.999 19.9995 19.9999 20.0003 20.0006 20.0008 20.0009 20.0009 20.0009 20.0008 20.0007 20.0005 20.0005 20.0005 20.0006 20.0007 20.0009 20.0008 20.0001 19.9982 19.9942 19.9874 19.9771 19.9637 19.9494 19.94 19.9462 19.9855 20.0828 20.2676 20.5662 20.9877 
20 19.761 19.7065 19.743 19.8112 19.8789 19.9324 19.9686 19.9899 20.0004 20.004 20.0041 20.0026 20.001 19.9996 19.9988 19.9985 19.9985 19.9988 19.9991 19.9995 19.9999 20.0002 20.0004 20.0005 20.0005 20.0005 20.0004 20.0002 20.0001 20 20.0001 20.0002 20.0004 20.0007 20.0008 20.0004 19.9988 19.9953 19.9888 19.9783 19.9638 19.9467 19.9318 19.9292 19.9564 20.0392 20.2113 20.5074 20.9511 
20.1564 19.8596 19.7598 19.7657 19.816 19.8751 19.9256 19.962 19.9847 19.9969 20.002 20.0031 20.0023 20.0009 19.9997 19.9989 19.9985 19.9984 19.9986 19.9989 19.9993 19.9996 19.9998 20 20.0002 20.0002 20.0001 20 19.9999 19.9998 19.9997 19.9997 19.9998 20.0001 20.0005 20.0008 20.0006 19.9995 19.9965 19.9904 19.98 19.9647 19.9451 19.9252 19.914 19.9283 19.9946 20.1498 20.4361 20.891 
20.309 19.9616 19.8191 19.7943 19.8254 19.8742 19.9206 19.9562 19.9799 19.9935 19.9999 20.002 20.0019 20.0009 19.9998 19.999 19.9985 19.9984 19.9985 19.9988 19.9991 19.9994 19.9996 19.9998 19.9999 20 19.9999 19.9998 19.9997 19.9995 19.9994 19.9994 19.9995 19.9998 20.0002 20.0007 20.0009 20.0002 19.9977 19.9922 19.9821 19.9664 19.9449 19.9205 19.9009 19.9019 19.9501 20.0846 20.3541 20.809 
20.454 20.0646 19.8828 19.8278 19.839 19.8765 19.9175 19.9515 19.9755 19.9901 19.9978 20.0009 20.0014 20.0008 19.9999 19.9991 19.9986 19.9985 19.9985 19.9987 19.999 19.9992 19.9995 19.9997 19.9998 19.9998 19.9998 19.9997 19.9995 19.9994 19.9992 19.9992 19.9993 19.9996 20 20.0006 20.0011 20.0008 19.999 19.9941 19.9847 19.9689 19.946 19.9176 19.8901 19.8779 19.9068 20.0172 20.2633 20.7071 
20.5878 20.166 19.9493 19.8656 19.8566 19.8817 19.9163 19.9479 19.9716 19.987 19.9957 19.9996 20.0008 20.0006 20 19.9993 19.9988 19.9986 19.9986 19.9987 19.999 19.9992 19.9994 19.9996 19.9997 19.9998 19.9997 19.9996 19.9995 19.9993 19.9991 19.999 19.9991 19.9993 19.9998 20.0005 20.0012 20.0014 20.0002 19.9962 19.9875 19.9721 19.9483 19.9167 19.882 19.8568 19.8658 19.9495 20.166 20.5878 
20.7071 20.2632 20.0171 19.9066 19.8776 19.8898 19.9172 19.9455 19.9683 19.9841 19.9936 19.9984 20.0002 20.0005 20 19.9994 19.999 19.9988 19.9987 19.9988 19.999 19.9993 19.9995 19.9997 19.9998 19.9998 19.9998 19.9997 19.9995 19.9993 19.9991 19.999 19.999 19.9992 19.9997 20.0004 20.0014 20.002 20.0014 19.9983 19.9906 19.9759 19.9519 19.9178 19.8768 19.8393 19.828 19.8829 20.0646 20.454 
20.809 20.354 20.0844 19.9499 19.9016 19.9005 19.92 19.9444 19.9658 19.9815 19.9916 19.9971 19.9995 20.0002 20.0001 19.9996 19.9992 19.999 19.9989 19.999 19.9992 19.9994 19.9996 19.9998 19.9999 20 19.9999 19.9998 19.9997 19.9994 19.9992 19.999 19.9989 19.999 19.9995 20.0003 20.0014 20.0024 20.0026 20.0004 19.9939 19.9803 19.9566 19.9209 19.8745 19.8256 19.7944 19.8192 19.9617 20.309 
20.891 20.436 20.1496 19.9944 19.9279 19.9136 19.9247 19.9446 19.964 19.9794 19.9897 19.9958 19.9988 19.9999 20.0001 19.9998 19.9995 19.9993 19.9992 19.9993 19.9994 19.9997 19.9999 20 20.0002 20.0002 20.0002 20.0001 19.9999 19.9996 19.9993 19.9991 19.9989 19.999 19.9994 20.0003 20.0015 20.0028 20.0036 20.0025 19.9973 19.9851 19.9623 19.9259 19.8753 19.8162 19.7659 19.7599 19.8596 20.1564 
20.9511 20.5073 20.2111 20.0389 19.956 19.9288 19.9312 19.946 19.9631 19.9776 19.988 19.9945 19.9981 19.9996 20.0001 20 19.9998 19.9996 19.9995 19.9996 19.9998 20 20.0002 20.0004 20.0005 20.0006 20.0006 20.0004 20.0002 19.9999 19.9996 19.9992 19.999 19.999 19.9993 20.0001 20.0015 20.0031 20.0046 20.0045 20.0008 19.9903 19.9689 19.9326 19.8791 19.8113 19.7431 19.7066 19.761 20 
20.9877 20.5661 20.2674 20.0825 19.9851 19.9456 19.9394 19.9487 19.963 19.9763 19.9866 19.9934 19.9974 19.9993 20.0001 20.0002 20.0001 20 20 20.0001 20.0002 20.0004 20.0006 20.0008 20.001 20.001 20.001 20.0009 20.0006 20.0003 19.9999 19.9995 19.9991 19.999 19.9992 20 20.0014 20.0033 20.0053 20.0062 20.0041 19.9955 19.9762 19.941 19.8859 19.811 19.7266 19.6604 19.6683 19.8436 
21 20.6109 20.317 20.124 20.0145 19.9638 19.9489 19.9527 19.9637 19.9756 19.9855 19.9924 19.9967 19.9991 20.0001 20.0005 20.0005 20.0005 20.0005 20.0006 20.0008 20.001 20.0012 20.0014 20.0015 20.0015 20.0015 20.0013 20.0011 20.0007 20.0002 19.9997 19.9993 19.999 19.9991 19.9998 20.0012 20.0033 20.0058 20.0077 20.0072 20.0009 19.984 19.9507 19.8953 19.8153 19.7168 19.6225 19.5837 19.691 
20.9877 20.6407 20.3589 20.1625 20.0436 19.9829 19.9598 19.9579 19.9654 19.9756 19.9848 19.9917 19.9963 19.9989 20.0003 20.0009 20.0011 20.0011 20.0012 20.0013 20.0014 20.0016 20.0018 20.002 20.0021 20.0021 20.002 20.0018 20.0015 20.001 20.0005 19.9999 19.9993 19.9989 19.9989 19.9994 20.0007 20.003 20.006 20.0089 20.01 20.006 19.9921 19.9616 19.9073 19.8241 19.7139 19.594 19.5094 19.546 
20.9511 20.6548 20.392 20.1971 20.0718 20.0025 19.9719 19.9643 19.9682 19.9764 19.9847 19.9914 19.9961 19.9991 20.0007 20.0014 20.0018 20.0019 20.002 20.0021 20.0022 20.0023 20.0025 20.0025 20.0026 20.0025 20.0023 20.0021 20.0017 20.0011 20.0005 19.9998 19.9991 19.9986 19.9984 19.9988 20.0001 20.0025 20.0059 20.0097 20.0125 20.011 20.0003 19.9734 19.9216 19.8373 19.7181 19.5754 19.4471 19.4122 
20.891 20.6528 20.4156 20.227 20.0985 20.0225 19.985 19.9719 19.9722 19.9781 19.9854 19.9917 19.9964 19.9995 20.0013 20.0022 20.0026 20.0028 20.0028 20.0029 20.0029 20.0029 20.0029 20.0029 20.0028 20.0026 20.0024 20.002 20.0015 20.0009 20.0002 19.9994 19.9986 19.998 19.9977 19.998 19.9992 20.0017 20.0055 20.0102 20.0146 20.0157 20.0086 19.9859 19.938 19.8546 19.7293 19.5674 19.3986 19.2929 
20.809 20.6349 20.4293 20.2518 20.1232 20.0425 19.9991 19.9809 19.9774 19.981 19.9869 19.9927 19.9972 20.0003 20.0022 20.0031 20.0035 20.0036 20.0036 20.0034 20.0033 20.0031 20.003 20.0028 20.0025 20.0022 20.0018 20.0014 20.0008 20.0001 19.9994 19.9986 19.9978 19.9971 19.9967 19.997 19.9982 20.0008 20.005 20.0106 20.0165 20.0202 20.017 19.9991 19.9561 19.8757 19.7475 19.5703 19.3649 19.191 
20.7071 20.6016 20.4328 20.271 20.1457 20.0622 20.0141 19.9912 19.9841 19.9851 19.9895 19.9944 19.9985 20.0014 20.0032 20.004 20.0042 20.0041 20.0038 20.0034 20.003 20.0026 20.0022 20.0018 20.0013 20.0009 20.0004 19.9998 19.9993 19.9986 19.9979 19.9972 19.9965 19.9959 19.9957 19.996 19.9974 20.0002 20.0047 20.0112 20.0186 20.0249 20.0256 20.013 19.976 19.9005 19.7723 19.584 19.347 19.109 
20.5878 20.5537 20.4262 20.2843 20.1655 20.0815 20.0298 20.0029 19.9921 19.9904 19.993 19.9967 20.0001 20.0025 20.0038 20.0043 20.0042 20.0037 20.003 20.0022 20.0014 20.0007 20 19.9994 19.9988 19.9982 19.9977 19.9973 19.9968 19.9964 19.996 19.9955 19.9952 19.9949 19.995 19.9956 19.9972 20.0003 20.0053 20.0125 20.0214 20.0303 20.0348 20.0278 19.9976 19.9286 19.8034 19.6084 19.3454 19.0489 
20.454 20.4926 20.4097 20.2914 20.1823 20.0998 20.0459 20.0153 20.001 19.9964 19.9968 19.9989 20.0011 20.0026 20.0033 20.0031 20.0024 20.0013 20.0001 19.9989 19.9977 19.9967 19.9958 19.995 19.9945 19.9941 19.9938 19.9937 19.9937 19.9938 19.9939 19.9941 19.9944 19.9948 19.9954 19.9966 19.9987 20.0022 20.0077 20.0156 20.0258 20.0368 20.0451 20.0436 20.0207 19.9597 19.8403 19.6431 19.3603 19.0123 
20.309 20.4194 20.3835 20.2918 20.195 20.1162 20.0612 20.0276 20.0098 20.002 19.9998 19.9998 20.0004 20.0006 20.0001 19.999 19.9975 19.9958 19.9941 19.9924 19.991 19.9899 19.9891 19.9886 19.9884 19.9886 19.989 19.9897 19.9907 19.9918 19.993 19.9943 19.9956 19.997 19.9985 20.0005 20.0031 20.0071 20.013 20.0214 20.0325 20.0453 20.0568 20.0605 20.045 19.993 19.8819 19.687 19.3911 19 
20.1564 20.3358 20.3475 20.2845 20.2024 20.1288 20.0738 20.0376 20.0163 20.0051 19.9997 19.9972 19.9957 19.9942 19.9924 19.9903 19.988 19.9857 19.9837 19.982 19.9808 19.9801 19.98 19.9804 19.9813 19.9828 19.9847 19.9869 19.9895 19.9923 19.9951 19.998 20.0009 20.0036 20.0063 20.0091 20.0123 20.0165 20.0225 20.0309 20.0422 20.056 20.0698 20.0778 20.0694 20.0271 19.9265 19.7384 19.4367 19.0123 
20 20.2429 20.301 20.2676 20.2014 20.1344 20.0802 20.0418 20.017 20.002 19.9932 19.9878 19.9839 19.9807 19.9776 19.9746 19.972 19.9698 19.9682 19.9673 19.9673 19.9681 19.9698 19.9722 19.9754 19.9793 19.9836 19.9884 19.9935 19.9986 20.0037 20.0086 20.0132 20.0174 20.0211 20.0245 20.0279 20.0318 20.037 20.0444 20.0547 20.0681 20.0827 20.0938 20.0916 20.0591 19.971 19.7945 19.495 19.0489 
19.8436 20.1415 20.2424 20.2375 20.1876 20.1279 20.0751 20.0347 20.0066 19.9879 19.9757 19.9675 19.9616 19.957 19.9534 19.9506 19.9488 19.948 19.9484 19.95 19.9528 19.9569 19.962 19.9681 19.9751 19.9827 19.9908 19.9991 20.0074 20.0155 20.0232 20.0301 20.0362 20.0413 20.0453 20.0483 20.0507 20.0529 20.0558 20.0604 20.0679 20.0787 20.092 20.1042 20.1068 20.0839 20.0103 19.8505 19.5629 19.109 
19.691 20.0315 20.1682 20.1886 20.1539 20.1014 20.0505 20.0089 19.9782 19.9566 19.9419 19.932 19.9255 19.9213 19.9191 19.9187 19.9201 19.9232 19.9281 19.9348 19.9431 19.9528 19.9637 19.9755 19.988 20.0008 20.0137 20.0262 20.038 20.0489 20.0585 20.0666 20.0729 20.0773 20.0797 20.0802 20.0791 20.0772 20.0751 20.0743 20.076 20.0815 20.0907 20.1014 20.1067 20.0929 20.0358 19.8991 19.635 19.191 
19.546 19.9115 20.073 20.1127 20.0906 20.045 19.9969 19.9557 19.9243 19.9022 19.8877 19.8791 19.8751 19.8749 19.8778 19.8836 19.8922 19.9032 19.9165 19.9318 19.9489 19.9672 19.9863 20.0058 20.0253 20.0441 20.0619 20.0781 20.0925 20.1045 20.1139 20.1204 20.1238 20.124 20.1211 20.1152 20.1069 20.0968 20.0859 20.0759 20.0683 20.0649 20.0667 20.0729 20.0788 20.0734 20.0354 19.9294 19.7039 19.2929 
19.4122 19.7786 19.949 19.9992 19.9863 19.9476 19.9046 19.8674 19.8398 19.8221 19.8132 19.8116 19.8161 19.8259 19.84 19.8581 19.8795 19.9038 19.9303 19.9586 19.9879 20.0175 20.0467 20.0747 20.101 20.1248 20.1456 20.1628 20.1759 20.1847 20.189 20.1884 20.1832 20.1733 20.159 20.1409 20.1195 20.0959 20.0714 20.0478 20.0271 20.0114 20.0028 20.0019 20.0065 20.0091 19.9929 19.9268 19.7591 19.4122 
19.2929 19.6282 19.7866 19.8366 19.8299 19.8004 19.7679 19.7421 19.7267 19.7225 19.7285 19.7433 19.7658 19.7945 19.8285 19.8667 19.9081 19.9517 19.9964 20.0411 20.0849 20.1266 20.1652 20.1997 20.2294 20.2534 20.2712 20.2824 20.2865 20.2836 20.2737 20.257 20.2339 20.2049 20.1708 20.1324 20.091 20.048 20.0049 19.9639 19.9272 19.8976 19.8775 19.8688 19.8718 19.8828 19.8914 19.8744 19.7869 19.546 
19.191 19.4538 19.5763 19.6168 19.6171 19.604 19.593 19.5917 19.6027 19.6264 19.6616 19.7066 19.7597 19.8192 19.8833 19.9502 20.0183 20.0859 20.1514 20.2131 20.2695 20.3194 20.3614 20.3945 20.4179 20.431 20.4336 20.4254 20.4068 20.3782 20.3402 20.2938 20.2401 20.1804 20.1162 20.0492 19.981 19.9138 19.8495 19.7904 19.7392 19.6983 19.6706 19.6584 19.6634 19.6855 19.7209 19.7584 19.7704 19.691 
19.109 19.2475 19.3139 19.3434 19.3606 19.3803 19.4105 19.4546 19.5133 19.5852 19.6686 19.7609 19.8595 19.9618 20.0651 20.1669 20.2645 20.3555 20.4378 20.5093 20.5683 20.6132 20.6431 20.6572 20.6551 20.6368 20.6029 20.5541 20.4917 20.4172 20.3324 20.2394 20.1405 20.038 19.9346 19.8328 19.7352 19.6443 19.5626 19.4925 19.4363 19.3962 19.3741 19.372 19.3912 19.4326 19.4968 19.5836 19.6925 19.8436 
19.0489 19 19.0123 19.0489 19.109 19.191 19.2929 19.4122 19.546 19.691 19.8436 20 20.1564 20.309 20.454 20.5878 20.7071 20.809 20.891 20.9511 20.9877 21 20.9877 20.9511 20.891 20.809 20.7071 20.5878 20.454 20.309 20.1564 20 19.8436 19.691 19.546 19.4122 19.2929 19.191 19.109 19.0489 19.0123 19 19.0123 19.0489 19.109 19.191 19.2929 19.4122 19.546 20 
