# vtk DataFile Version 3.0
Temperature distribution on a 2D grid
ASCII

DATASET STRUCTURED_POINTS
DIMENSIONS 50 50 1
ORIGIN 0.0 0.0 0.0
SPACING 0.01 0.01 1.0

POINT_DATA 2500
SCALARS temperature double
LOOKUP_TABLE default
20.6374 19.491 19.6319 19.7819 19.9372 20.0941 20.2487 20.3971 20.5358 20.6613 20.7705 20.8607 20.9298 20.9759 20.998 20.9956 20.9686 20.9178 20.8443 20.7501 20.6374 20.509 20.3681 20.2181 20.0628 19.9059 19.7513 19.6029 19.4642 19.3387 19.2295 19.1393 19.0702 19.0241 19.002 19.0044 19.0314 19.0822 19.1557 19.2499 19.3626 19.491 19.6319 19.7819 19.9372 20.0941 20.2487 20.3971 20.5358 20.7705 
20.7501 20.1794 20.0761 20.1025 20.1776 20.2686 20.3603 20.4449 20.5181 20.5772 20.6207 20.6479 20.6582 20.6519 20.6292 20.5908 20.5378 20.4715 20.3937 20.3062 20.2113 20.1111 20.0082 19.9052 19.8045 19.7086 19.6199 19.5406 19.4726 19.4176 19.377 19.3518 19.3426 19.3497 19.3728 19.4113 19.4644 19.5305 19.6079 19.6946 19.7885 19.8874 19.9897 20.0945 20.2021 20.3143 20.4347 20.5666 20.7094 20.8607 
20.8443 20.4345 20.2639 20.2177 20.2327 20.2732 20.3199 20.3624 20.3954 20.4165 20.4249 20.4209 20.405 20.378 20.3412 20.2957 20.2427 20.1838 20.1204 20.0541 19.9865 19.9194 19.8542 19.7927 19.7363 19.6864 19.6443 19.611 19.5873 19.5737 19.5708 19.5785 19.5967 19.625 19.6625 19.7085 19.7615 19.8202 19.8828 19.9476 20.0129 20.0775 20.1412 20.2053 20.2737 20.3534 20.4542 20.5859 20.751 20.9298 
20.9178 20.5407 20.3302 20.233 20.2028 20.2065 20.2232 20.2406 20.2524 20.2556 20.2495 20.2347 20.212 20.1828 20.1481 20.1094 20.0679 20.0246 19.9808 19.9376 19.8959 19.857 19.8216 19.7906 19.7649 19.745 19.7314 19.7244 19.7243 19.7311 19.7446 19.7645 19.7903 19.8215 19.8572 19.8966 19.9383 19.9813 20.024 20.0651 20.1033 20.1381 20.1704 20.2033 20.2434 20.3017 20.3933 20.5345 20.7338 20.9759 
20.9686 20.5937 20.3514 20.2151 20.1503 20.1272 20.1243 20.1279 20.1303 20.1277 20.119 20.1045 20.0851 20.0619 20.0362 20.009 19.9814 19.9542 19.9282 19.9041 19.8824 19.8637 19.8485 19.837 19.8296 19.8265 19.8277 19.8332 19.8428 19.8564 19.8737 19.8943 19.9177 19.9433 19.9705 19.9986 20.0266 20.0536 20.0783 20.0996 20.1167 20.1295 20.1393 20.1504 20.1712 20.2155 20.3027 20.4549 20.6885 20.998 
20.9956 20.6257 20.3622 20.1971 20.1062 20.0633 20.0473 20.0435 20.0428 20.0405 20.0348 20.0253 20.0128 19.9982 19.9825 19.9665 19.9511 19.9369 19.9242 19.9135 19.905 19.899 19.8956 19.8948 19.8967 19.9011 19.9081 19.9173 19.9287 19.942 19.9568 19.9729 19.99 20.0076 20.0252 20.0424 20.0585 20.0727 20.084 20.0914 20.0943 20.0924 20.0876 20.0842 20.0917 20.1257 20.2086 20.368 20.6281 20.9956 
20.998 20.6466 20.3746 20.1907 20.0809 20.0234 19.9982 19.99 19.9888 19.989 19.9877 19.9843 19.9789 19.9722 19.9649 19.9578 19.9513 19.946 19.942 19.9395 19.9386 19.9393 19.9416 19.9454 19.9506 19.9571 19.9648 19.9733 19.9826 19.9925 20.0027 20.0131 20.0235 20.0337 20.0433 20.0521 20.0596 20.0652 20.0679 20.0669 20.0613 20.0509 20.0371 20.0243 20.022 20.0466 20.1228 20.2824 20.5578 20.9686 
20.9759 20.6577 20.3898 20.1967 20.0743 20.0059 19.9735 19.962 19.9609 19.9635 19.9663 19.968 19.9683 19.9676 19.9664 19.9652 19.9645 19.9644 19.9652 19.9669 19.9696 19.9731 19.9773 19.9822 19.9875 19.9933 19.9992 20.0053 20.0113 20.0172 20.0229 20.0283 20.0333 20.0379 20.0419 20.0453 20.0476 20.0482 20.0464 20.0412 20.0314 20.0166 19.9977 19.9785 19.968 19.9827 20.0485 20.2009 20.4797 20.9178 
20.9298 20.6578 20.4053 20.2113 20.0814 20.0051 19.9668 19.9522 19.9505 19.9546 19.9602 19.9654 19.9697 19.9729 19.9755 19.9778 19.9801 19.9827 19.9857 19.9891 19.9927 19.9967 20.0008 20.005 20.0091 20.013 20.0166 20.02 20.0229 20.0255 20.0276 20.0293 20.0307 20.0318 20.0326 20.0329 20.0326 20.0311 20.0276 20.021 20.0099 19.9934 19.9717 19.9478 19.9298 19.9335 19.9855 20.1237 20.3947 20.8443 
20.8607 20.6453 20.4174 20.2294 20.0968 20.0148 19.9714 19.9535 19.9504 19.9547 19.9617 19.9689 19.9754 19.9809 19.9855 19.9895 19.9932 19.9968 20.0003 20.0038 20.0073 20.0106 20.0137 20.0166 20.019 20.0211 20.0227 20.0238 20.0245 20.0247 20.0245 20.024 20.0233 20.0226 20.0218 20.0209 20.0198 20.018 20.0145 20.0082 19.9974 19.9808 19.9577 19.9301 19.9049 19.8968 19.9319 20.0501 20.3036 20.7501 
20.7705 20.6189 20.423 20.247 20.1154 20.03 19.9821 19.9607 19.9554 19.9589 19.966 19.974 19.9815 19.9879 19.9934 19.9981 20.0021 20.0057 20.009 20.0119 20.0146 20.017 20.0189 20.0205 20.0216 20.0222 20.0223 20.0219 20.0211 20.0199 20.0185 20.0169 20.0153 20.0139 20.0127 20.0118 20.011 20.0097 20.0073 20.0021 19.9926 19.9766 19.953 19.9224 19.8902 19.8697 19.8859 19.9795 20.2071 20.6374 
20.6613 20.5784 20.4202 20.2609 20.1338 20.0468 19.9953 19.9702 19.9623 19.9641 19.9705 19.9784 19.986 19.9927 19.9983 20.003 20.0068 20.01 20.0127 20.015 20.0169 20.0183 20.0193 20.0198 20.0199 20.0195 20.0188 20.0176 20.016 20.0143 20.0124 20.0105 20.0087 20.0073 20.0064 20.0059 20.0058 20.0057 20.0045 20.001 19.9931 19.9783 19.9546 19.9216 19.883 19.85 19.8462 19.9119 20.1069 20.509 
20.5358 20.524 20.4077 20.2692 20.1496 20.0629 20.0087 19.9802 19.9693 19.969 19.9741 19.9812 19.9885 19.995 20.0004 20.0048 20.0083 20.0111 20.0132 20.0148 20.016 20.0167 20.017 20.0169 20.0164 20.0155 20.0143 20.0128 20.0111 20.0092 20.0073 20.0055 20.004 20.003 20.0025 20.0028 20.0036 20.0045 20.0048 20.0029 19.9967 19.9833 19.9601 19.9253 19.881 19.8361 19.8119 19.8476 20.0047 20.3681 
20.3971 20.4568 20.3852 20.2708 20.1615 20.077 20.0211 19.9896 19.9758 19.9731 19.9766 19.9827 19.9893 19.9954 20.0005 20.0046 20.0077 20.01 20.0117 20.0129 20.0136 20.0138 20.0137 20.0133 20.0125 20.0115 20.0102 20.0087 20.007 20.0053 20.0037 20.0022 20.0011 20.0005 20.0006 20.0015 20.0031 20.005 20.0066 20.0062 20.0017 19.99 19.9677 19.9318 19.8827 19.8269 19.7829 19.7875 19.9025 20.2181 
20.2487 20.3782 20.3529 20.2654 20.1688 20.0884 20.032 19.9981 19.9815 19.9765 19.9782 19.9831 19.9889 19.9945 19.9993 20.003 20.0059 20.0079 20.0093 20.0102 20.0106 20.0107 20.0104 20.0098 20.009 20.008 20.0068 20.0054 20.004 20.0026 20.0013 20.0002 19.9995 19.9993 19.9999 20.0012 20.0034 20.0062 20.0088 20.0099 20.0071 19.9972 19.9761 19.9401 19.8873 19.8219 19.7591 19.7326 19.8027 20.0628 
20.0941 20.2901 20.3117 20.2529 20.1713 20.0969 20.0412 20.0057 19.9866 19.9794 19.9793 19.9829 19.9879 19.993 19.9974 20.0009 20.0036 20.0055 20.0067 20.0074 20.0078 20.0077 20.0074 20.0069 20.0062 20.0053 20.0042 20.0032 20.002 20.0009 19.9999 19.9992 19.9987 19.9989 19.9997 20.0014 20.004 20.0073 20.0108 20.0131 20.0119 20.0039 19.9847 19.9493 19.8942 19.8209 19.7409 19.684 19.7077 19.9059 
19.9372 20.1947 20.2625 20.2338 20.1691 20.1024 20.0488 20.0123 19.9914 19.982 19.9802 19.9826 19.9867 19.9913 19.9954 19.9988 20.0013 20.0031 20.0043 20.005 20.0053 20.0053 20.005 20.0046 20.004 20.0033 20.0025 20.0016 20.0008 19.9999 19.9992 19.9987 19.9984 19.9987 19.9997 20.0015 20.0043 20.008 20.0121 20.0154 20.0159 20.01 19.9929 19.9591 19.9032 19.8238 19.7287 19.6429 19.6197 19.7513 
19.7819 20.0945 20.2066 20.2086 20.1624 20.1049 20.0546 20.0182 19.9959 19.9847 19.9813 19.9824 19.9857 19.9898 19.9936 19.9968 19.9993 20.0011 20.0023 20.003 20.0033 20.0034 20.0032 20.0029 20.0025 20.0019 20.0013 20.0007 20 19.9994 19.9988 19.9984 19.9983 19.9987 19.9996 20.0014 20.0042 20.0081 20.0126 20.0169 20.0188 20.0151 20.0007 19.9692 19.9139 19.8305 19.7227 19.6103 19.5409 19.6029 
19.6319 19.9918 20.1455 20.1781 20.1513 20.1045 20.0588 20.0234 20.0002 19.9876 19.9827 19.9826 19.9851 19.9886 19.9921 19.9952 19.9976 19.9994 20.0007 20.0014 20.0018 20.002 20.0019 20.0017 20.0014 20.001 20.0006 20.0001 19.9996 19.9991 19.9987 19.9983 19.9982 19.9985 19.9993 20.001 20.0037 20.0075 20.0123 20.0173 20.0207 20.0193 20.0079 19.9796 19.9262 19.8409 19.7232 19.5871 19.4733 19.4642 
19.491 19.8893 20.0807 20.143 20.1364 20.1013 20.0613 20.0278 20.0044 19.9907 19.9845 19.9833 19.9849 19.9879 19.9911 19.994 19.9963 19.9982 19.9994 20.0003 20.0007 20.001 20.001 20.0009 20.0007 20.0005 20.0002 19.9998 19.9994 19.999 19.9986 19.9983 19.9981 19.9982 19.9988 20.0002 20.0026 20.0063 20.0112 20.0168 20.0216 20.0225 20.0144 19.99 19.9399 19.8549 19.7303 19.5738 19.4186 19.3387 
19.3626 19.7895 20.0138 20.1044 20.1181 20.0956 20.0623 20.0315 20.0084 19.994 19.9867 19.9844 19.9853 19.9876 19.9904 19.9931 19.9954 19.9972 19.9985 19.9994 20 20.0003 20.0004 20.0004 20.0003 20.0001 19.9999 19.9996 19.9993 19.9989 19.9985 19.9981 19.9979 19.9978 19.9981 19.9992 20.0013 20.0047 20.0096 20.0156 20.0216 20.0248 20.0202 20.0003 19.9548 19.8723 19.7438 19.5709 19.3781 19.2295 
19.2499 19.6948 19.9466 20.0631 20.0967 20.0875 20.0617 20.0343 20.0123 19.9975 19.9893 19.9861 19.9861 19.9878 19.9902 19.9927 19.9949 19.9966 19.9979 19.9989 19.9995 19.9998 20 20.0001 20 19.9999 19.9998 19.9995 19.9992 19.9989 19.9984 19.998 19.9976 19.9973 19.9973 19.998 19.9996 20.0026 20.0074 20.0137 20.0208 20.0262 20.0253 20.0104 19.9707 19.8926 19.7635 19.5785 19.3529 19.1393 
19.1557 19.6077 19.8807 20.0203 20.073 20.0772 20.0596 20.0364 20.0158 20.0011 19.9922 19.9881 19.9873 19.9884 19.9904 19.9926 19.9946 19.9963 19.9976 19.9985 19.9991 19.9995 19.9998 19.9999 19.9999 19.9998 19.9997 19.9995 19.9992 19.9988 19.9984 19.9978 19.9972 19.9967 19.9964 19.9966 19.9978 20.0004 20.0048 20.0113 20.0193 20.0267 20.0295 20.0201 19.9871 19.9154 19.7889 19.5964 19.3436 19.0702 
19.0822 19.5302 19.8177 19.9769 20.0475 20.065 20.056 20.0375 20.019 20.0046 19.9954 19.9905 19.9889 19.9894 19.9909 19.9927 19.9946 19.9961 19.9973 19.9983 19.9989 19.9993 19.9996 19.9997 19.9998 19.9997 19.9996 19.9995 19.9992 19.9988 19.9983 19.9976 19.9969 19.9961 19.9955 19.9953 19.9959 19.998 20.002 20.0085 20.0171 20.0265 20.0329 20.0292 20.0037 19.9403 19.8195 19.6242 19.3504 19.0241 
19.0314 19.4642 19.7592 19.9342 20.0208 20.0512 20.051 20.0377 20.0217 20.0081 19.9986 19.9932 19.9909 19.9907 19.9917 19.9931 19.9947 19.9961 19.9973 19.9981 19.9988 19.9992 19.9995 19.9997 19.9997 19.9997 19.9996 19.9995 19.9992 19.9988 19.9982 19.9975 19.9966 19.9956 19.9946 19.994 19.9941 19.9955 19.9991 20.0054 20.0145 20.0256 20.0355 20.0375 20.0202 19.9665 19.8545 19.6613 19.3733 19.002 
19.0044 19.4115 19.7066 19.893 19.9936 20.0361 20.0448 20.037 20.0239 20.0114 20.002 19.996 19.9931 19.9922 19.9927 19.9937 19.995 19.9962 19.9973 19.9981 19.9987 19.9991 19.9994 19.9996 19.9997 19.9997 19.9996 19.9995 19.9992 19.9988 19.9982 19.9974 19.9964 19.9952 19.9939 19.9928 19.9924 19.9932 19.9962 20.0021 20.0115 20.024 20.0371 20.0448 20.0362 19.9936 19.893 19.7066 19.4115 19.0044 
19.002 19.3732 19.6612 19.8544 19.9665 20.0201 20.0374 20.0354 20.0255 20.0144 20.0052 19.9989 19.9954 19.9939 19.9938 19.9945 19.9954 19.9964 19.9973 19.9981 19.9987 19.9991 19.9994 19.9996 19.9997 19.9997 19.9997 19.9996 19.9993 19.9989 19.9983 19.9974 19.9963 19.9949 19.9933 19.9918 19.9909 19.9911 19.9933 19.9988 20.0083 20.0219 20.0378 20.0511 20.0513 20.0208 19.9342 19.7592 19.4642 19.0314 
19.0241 19.3504 19.6242 19.8194 19.9402 20.0036 20.029 20.0328 20.0264 20.017 20.0083 20.0018 19.9977 19.9957 19.995 19.9953 19.9959 19.9967 19.9974 19.9981 19.9986 19.9991 19.9994 19.9996 19.9997 19.9998 19.9998 19.9997 19.9994 19.999 19.9984 19.9975 19.9963 19.9948 19.993 19.9911 19.9896 19.9892 19.9907 19.9955 20.0048 20.0192 20.0376 20.0561 20.0651 20.0476 19.977 19.8177 19.5302 19.0822 
19.0702 19.3436 19.5964 19.7888 19.9153 19.9869 20.0199 20.0293 20.0265 20.019 20.011 20.0045 20 19.9974 19.9963 19.9961 19.9964 19.9969 19.9975 19.9981 19.9986 19.999 19.9993 19.9996 19.9998 19.9999 19.9999 19.9999 19.9997 19.9993 19.9987 19.9978 19.9966 19.9949 19.9929 19.9907 19.9887 19.9876 19.9884 19.9925 20.0013 20.016 20.0365 20.0597 20.0773 20.0731 20.0203 19.8807 19.6077 19.1557 
19.1393 19.3528 19.5784 19.7634 19.8924 19.9704 20.0101 20.0249 20.0258 20.0203 20.0133 20.0069 20.0021 19.9991 19.9975 19.9968 19.9968 19.9971 19.9976 19.9981 19.9986 19.999 19.9994 19.9997 19.9999 20.0001 20.0002 20.0002 20.0001 19.9998 19.9992 19.9984 19.9971 19.9953 19.9932 19.9907 19.9883 19.9865 19.9865 19.9896 19.9978 20.0125 20.0346 20.0619 20.0876 20.0968 20.0632 19.9466 19.6948 19.2499 
19.2295 19.378 19.5708 19.7436 19.8719 19.9544 19.9998 20.0197 20.0242 20.0209 20.0149 20.0088 20.0039 20.0005 19.9985 19.9974 19.9971 19.9972 19.9976 19.998 19.9985 19.999 19.9994 19.9998 20.0001 20.0004 20.0006 20.0007 20.0007 20.0005 20 19.9992 19.9979 19.9961 19.9938 19.9911 19.9882 19.9859 19.985 19.9872 19.9944 20.0088 20.0317 20.0625 20.0958 20.1182 20.1044 20.0139 19.7895 19.3626 
19.3387 19.4184 19.5735 19.7299 19.8544 19.9393 19.9892 20.0136 20.0216 20.0206 20.0158 20.0102 20.0053 20.0016 19.9992 19.9979 19.9973 19.9972 19.9975 19.998 19.9985 19.999 19.9996 20.0001 20.0006 20.001 20.0013 20.0015 20.0016 20.0015 20.0011 20.0003 19.9991 19.9973 19.9949 19.992 19.9887 19.9857 19.984 19.9851 19.9912 20.0048 20.0281 20.0616 20.1015 20.1365 20.1431 20.0807 19.8893 19.491 
19.4642 19.4731 19.5866 19.7226 19.8401 19.9252 19.9785 20.0067 20.018 20.0193 20.0159 20.0108 20.006 20.0022 19.9996 19.998 19.9973 19.9972 19.9974 19.9979 19.9985 19.9992 19.9999 20.0006 20.0013 20.0019 20.0024 20.0027 20.0029 20.0029 20.0026 20.0019 20.0007 19.9989 19.9965 19.9933 19.9897 19.9861 19.9835 19.9834 19.9882 20.0006 20.0237 20.059 20.1046 20.1514 20.1781 20.1455 19.9918 19.6319 
19.6029 19.5406 19.6097 19.7218 19.8293 19.9125 19.9676 19.999 20.0133 20.0169 20.0149 20.0106 20.0061 20.0023 19.9996 19.9979 19.9972 19.997 19.9973 19.998 19.9988 19.9997 20.0006 20.0016 20.0024 20.0032 20.0039 20.0044 20.0048 20.0049 20.0046 20.004 20.0028 20.001 19.9985 19.9951 19.9912 19.987 19.9834 19.9821 19.9853 19.9963 20.0185 20.0547 20.1048 20.1623 20.2085 20.2065 20.0944 19.7819 
19.7513 19.6192 19.642 19.7274 19.8222 19.9012 19.9569 19.9906 20.0075 20.0133 20.0128 20.0095 20.0055 20.002 19.9993 19.9977 19.997 19.997 19.9975 19.9984 19.9994 20.0006 20.0018 20.0031 20.0042 20.0052 20.0061 20.0067 20.0072 20.0074 20.0072 20.0065 20.0053 20.0034 20.0007 19.9972 19.9929 19.9881 19.9836 19.981 19.9825 19.9916 20.0124 20.0486 20.1021 20.1689 20.2335 20.2623 20.1946 19.9372 
19.9059 19.7071 19.6828 19.7392 19.8188 19.8917 19.9464 19.9816 20.0007 20.0087 20.0099 20.0077 20.0044 20.0013 19.9989 19.9976 19.9971 19.9973 19.9981 19.9993 20.0007 20.0023 20.0038 20.0053 20.0067 20.0079 20.0089 20.0097 20.0102 20.0103 20.0101 20.0093 20.008 20.006 20.0031 19.9993 19.9945 19.9891 19.9837 19.9797 19.9795 19.9865 20.0053 20.0407 20.0963 20.1707 20.2524 20.3113 20.2899 20.0941 
20.0628 19.802 19.7311 19.757 19.8193 19.8842 19.9366 19.9724 19.9934 20.0033 20.0062 20.0054 20.0031 20.0006 19.9988 19.9979 19.9978 19.9985 19.9997 20.0012 20.003 20.0049 20.0068 20.0085 20.0101 20.0114 20.0125 20.0132 20.0136 20.0136 20.0131 20.0121 20.0105 20.0082 20.005 20.0009 19.9957 19.9896 19.9833 19.978 19.976 19.9807 19.997 20.0309 20.0873 20.1678 20.2645 20.3523 20.3779 20.2487 
20.2181 19.9017 19.7858 19.7805 19.8239 19.8793 19.9281 19.9637 19.9861 19.9979 20.0026 20.0033 20.0022 20.0007 19.9997 19.9993 19.9998 20.0009 20.0025 20.0045 20.0066 20.0088 20.0108 20.0127 20.0142 20.0155 20.0164 20.0169 20.0169 20.0165 20.0156 20.0142 20.0122 20.0094 20.0058 20.0013 19.9956 19.989 19.9819 19.9754 19.9716 19.974 19.9877 20.0192 20.0753 20.16 20.2697 20.3844 20.4564 20.3971 
20.3681 20.0039 19.8461 19.8098 19.8333 19.8778 19.9219 19.9566 19.98 19.9936 20.0002 20.0026 20.0029 20.0025 20.0023 20.0027 20.0037 20.0053 20.0072 20.0094 20.0117 20.0138 20.0158 20.0174 20.0187 20.0195 20.0199 20.0198 20.0192 20.0181 20.0166 20.0145 20.0119 20.0086 20.0046 19.9996 19.9936 19.9866 19.9789 19.9715 19.9662 19.9664 19.9774 20.0062 20.0608 20.148 20.2681 20.407 20.5237 20.5358 
20.509 20.1065 19.9111 19.845 19.8485 19.8812 19.9198 19.9529 19.9768 19.992 20.0005 20.0047 20.0064 20.0072 20.0079 20.0088 20.0102 20.0119 20.0139 20.0159 20.0178 20.0195 20.0208 20.0217 20.0222 20.0221 20.0215 20.0205 20.0189 20.0169 20.0144 20.0116 20.0083 20.0045 20.0001 19.995 19.9889 19.9819 19.9741 19.9662 19.96 19.9585 19.967 19.9928 20.045 20.1328 20.2605 20.4201 20.5784 20.6613 
20.6374 20.2077 19.9805 19.8872 19.8712 19.8919 19.9243 19.9552 19.9792 19.9957 20.0058 20.0115 20.0145 20.0161 20.0172 20.0183 20.0195 20.0207 20.0219 20.023 20.0238 20.0242 20.0242 20.0237 20.0226 20.0211 20.019 20.0166 20.0137 20.0106 20.0072 20.0036 19.9998 19.9958 19.9915 19.9867 19.9813 19.975 19.9679 19.9605 19.9542 19.9518 19.9582 19.981 20.0301 20.1165 20.2487 20.4247 20.6199 20.7705 
20.7501 20.3059 20.0545 19.9379 19.904 19.9129 19.9387 19.9667 19.9902 20.0072 20.0182 20.0247 20.0281 20.0298 20.0305 20.0306 20.0305 20.0301 20.0294 20.0284 20.0269 20.025 20.0226 20.0198 20.0166 20.0129 20.0091 20.005 20.0008 19.9967 19.9927 19.9889 19.9853 19.982 19.9787 19.9753 19.9716 19.9673 19.9622 19.9565 19.9514 19.9492 19.9545 19.9746 20.0198 20.1029 20.2356 20.4225 20.6482 20.8607 
20.8443 20.4001 20.1339 19.9995 19.9501 19.948 19.9669 19.9911 20.0127 20.0288 20.0393 20.0451 20.0474 20.0474 20.0458 20.0433 20.0401 20.0363 20.0321 20.0274 20.0223 20.0168 20.011 20.0051 19.9991 19.9932 19.9876 19.9822 19.9774 19.9731 19.9696 19.9669 19.965 19.9638 19.9633 19.9631 19.9629 19.9623 19.961 19.9589 19.9566 19.956 19.9611 19.9788 20.0194 20.0968 20.2257 20.4166 20.6641 20.9298 
20.9178 20.4898 20.22 20.0744 20.0131 20.0008 20.0121 20.0308 20.0484 20.0612 20.0684 20.0708 20.0692 20.0647 20.0583 20.0505 20.0417 20.0323 20.0225 20.0123 20.0022 19.9921 19.9824 19.9732 19.9647 19.9571 19.9507 19.9455 19.9417 19.9394 19.9387 19.9395 19.9418 19.9456 19.9504 19.956 19.9618 19.9674 19.972 19.9753 19.9775 19.9799 19.9856 20.001 20.0359 20.1045 20.2242 20.4109 20.6692 20.9759 
20.9686 20.5745 20.3136 20.1647 20.095 20.0731 20.0751 20.0854 20.0952 20.1005 20.1003 20.0949 20.0853 20.0725 20.0575 20.0411 20.0239 20.0064 19.9891 19.9723 19.9563 19.9416 19.9285 19.9172 19.908 19.9011 19.8967 19.8949 19.8957 19.8991 19.9052 19.9136 19.9242 19.9366 19.9504 19.9651 19.9798 19.9939 20.0065 20.0167 20.0245 20.0304 20.0369 20.0491 20.0762 20.1323 20.2361 20.4085 20.6647 20.998 
20.9956 20.6528 20.4137 20.2692 20.194 20.1617 20.151 20.1477 20.1438 20.1354 20.1215 20.1026 20.0795 20.0536 20.0259 19.9976 19.9695 19.9424 19.9169 19.8937 19.8733 19.8562 19.8426 19.833 19.8276 19.8265 19.8297 19.8371 19.8486 19.8638 19.8825 19.9042 19.9282 19.954 19.9809 20.0079 20.034 20.0583 20.0795 20.0968 20.1094 20.1174 20.1226 20.129 20.1445 20.1825 20.2623 20.4094 20.6496 20.9956 
20.998 20.7209 20.5145 20.3798 20.2995 20.2531 20.2233 20.1987 20.1726 20.1421 20.1068 20.0673 20.025 19.9814 19.9379 19.8959 19.8565 19.8208 19.7898 19.764 19.7443 19.7309 19.7242 19.7243 19.7313 19.745 19.7649 19.7907 19.8217 19.8571 19.8961 19.9377 19.9809 20.0245 20.0675 20.1086 20.1465 20.1799 20.2076 20.2283 20.2413 20.2463 20.2444 20.2387 20.2359 20.2478 20.2938 20.4032 20.6148 20.9686 
20.9759 20.7684 20.5991 20.4746 20.3849 20.3164 20.2576 20.2007 20.1419 20.0799 20.0152 19.9491 19.8835 19.8203 19.7612 19.708 19.6621 19.6245 19.5964 19.5782 19.5706 19.5736 19.5872 19.6109 19.6443 19.6864 19.7363 19.7927 19.8543 19.9194 19.9866 20.0542 20.1205 20.1838 20.2425 20.2951 20.3401 20.3761 20.4018 20.4163 20.4189 20.4094 20.3888 20.3595 20.3269 20.3011 20.3003 20.3572 20.5287 20.9178 
20.9298 20.7697 20.6305 20.5079 20.3977 20.2943 20.1931 20.0917 19.9899 19.8885 19.7896 19.6954 19.6082 19.5305 19.4642 19.4111 19.3725 19.3495 19.3425 19.3517 19.3769 19.4176 19.4726 19.5406 19.6199 19.7086 19.8045 19.9052 20.0083 20.1111 20.2113 20.3063 20.3938 20.4715 20.5377 20.5905 20.6286 20.6509 20.6566 20.6455 20.6175 20.5733 20.5143 20.4429 20.3634 20.2834 20.2172 20.1959 20.2962 20.8443 
20.8607 20.6613 20.5358 20.3971 20.2487 20.0941 19.9372 19.7819 19.6319 19.491 19.3626 19.2499 19.1557 19.0822 19.0314 19.0044 19.002 19.0241 19.0702 19.1393 19.2295 19.3387 19.4642 19.6029 19.7513 19.9059 20.0628 20.2181 20.3681 20.509 20.6374 20.7501 20.8443 20.9178 20.9686 20.9956 20.998 20.9759 20.9298 20.8607 20.7705 20.6613 20.5358 20.3971 20.2487 20.0941 19.9372 19.7819 19.6319 20.7501 
