# vtk DataFile Version 3.0
Temperature distribution on a 2D grid
ASCII

DATASET STRUCTURED_POINTS
DIMENSIONS 50 50 1
ORIGIN 0.0 0.0 0.0
SPACING 0.01 0.01 1.0

POINT_DATA 2500
SCALARS temperature double
LOOKUP_TABLE default
20.8271 19.0952 19.0397 19.0079 19.0005 19.0177 19.0591 19.1237 19.2098 19.3155 19.4379 19.5742 19.721 19.8747 20.0314 20.1874 20.3387 20.4818 20.6129 20.729 20.8271 20.9048 20.9603 20.9921 20.9995 20.9823 20.9409 20.8763 20.7902 20.6845 20.5621 20.4258 20.279 20.1253 19.9686 19.8126 19.6613 19.5182 19.3871 19.271 19.1729 19.0952 19.0397 19.0079 19.0005 19.0177 19.0591 19.1237 19.2098 19.4379 
20.729 19.9285 19.6443 19.5204 19.4779 19.4839 19.5225 19.5841 19.6624 19.7525 19.8505 19.9529 20.0567 20.159 20.2573 20.3491 20.4322 20.5046 20.5644 20.6103 20.6412 20.6563 20.6552 20.638 20.6051 20.5573 20.4958 20.4221 20.338 20.2455 20.1471 20.045 19.9418 19.84 19.742 19.6504 19.5673 19.4948 19.4348 19.389 19.3588 19.3457 19.3507 19.3745 19.4168 19.4749 19.5419 19.6026 19.6279 19.5742 
20.6129 20.2643 20.0319 19.8955 19.8299 19.814 19.8321 19.873 19.9281 19.9913 20.0581 20.1248 20.1889 20.2483 20.3013 20.3466 20.3831 20.41 20.4267 20.4328 20.4282 20.4131 20.3878 20.353 20.3094 20.2583 20.2008 20.1384 20.0726 20.005 19.9373 19.8711 19.8081 19.7497 19.6975 19.6525 19.616 19.5888 19.5717 19.5657 19.5716 19.5904 19.6232 19.671 19.7333 19.8062 19.8787 19.9263 19.9014 19.721 
20.4818 20.3813 20.2405 20.125 20.051 20.016 20.0115 20.0283 20.0583 20.0951 20.134 20.1717 20.2057 20.2347 20.2575 20.2736 20.2825 20.2843 20.2789 20.2666 20.2476 20.2226 20.192 20.1567 20.1176 20.0756 20.0318 19.9872 19.9429 19.9 19.8596 19.8227 19.7901 19.7626 19.7408 19.7252 19.7161 19.7138 19.7186 19.7309 19.7514 19.7814 19.8225 19.8764 19.9434 20.02 20.094 20.1371 20.0946 19.8747 
20.3387 20.3906 20.3294 20.2429 20.1696 20.1217 20.0986 20.0947 20.1036 20.1193 20.1375 20.1547 20.1691 20.1793 20.1847 20.1851 20.1805 20.1712 20.1574 20.1397 20.1184 20.0942 20.0677 20.0396 20.0105 19.9811 19.9523 19.9246 19.8988 19.8755 19.8553 19.8387 19.826 19.8175 19.8133 19.8134 19.8178 19.8264 19.8392 19.8565 19.8793 19.909 19.9481 19.9994 20.0647 20.1418 20.2199 20.2708 20.2391 20.0314 
20.1874 20.3428 20.3451 20.2874 20.22 20.1652 20.1291 20.1101 20.1036 20.1047 20.1091 20.1138 20.1169 20.1172 20.1144 20.1082 20.0989 20.0868 20.0724 20.056 20.0382 20.0194 20.0002 19.9809 19.9622 19.9443 19.9279 19.9133 19.9009 19.8909 19.8836 19.8792 19.8777 19.8791 19.8833 19.8901 19.8991 19.9102 19.9233 19.9387 19.9575 19.9817 20.0146 20.06 20.1216 20.1994 20.2852 20.3537 20.3518 20.1874 
20.0314 20.2639 20.3183 20.2883 20.2305 20.174 20.1304 20.1017 20.0852 20.0769 20.0733 20.0712 20.0689 20.0652 20.0597 20.0522 20.043 20.0324 20.0207 20.0084 19.9958 19.9832 19.9711 19.9597 19.9493 19.9402 19.9325 19.9266 19.9225 19.9203 19.9202 19.922 19.9256 19.931 19.9379 19.9459 19.9548 19.9641 19.9739 19.9846 19.9974 20.0146 20.0402 20.0791 20.1368 20.216 20.3119 20.4035 20.4421 20.3387 
19.8747 20.1686 20.2684 20.2656 20.2203 20.1665 20.12 20.0859 20.0635 20.05 20.0421 20.037 20.0328 20.0284 20.0231 20.0169 20.0098 20.0022 19.9942 19.9862 19.9785 19.9712 19.9647 19.959 19.9544 19.9509 19.9487 19.9477 19.9481 19.9498 19.9527 19.9569 19.962 19.968 19.9745 19.9813 19.9879 19.994 19.9996 20.0051 20.0118 20.0223 20.041 20.0738 20.1279 20.2085 20.3149 20.4313 20.5149 20.4818 
19.721 20.0656 20.2063 20.231 20.2008 20.1531 20.1073 20.0712 20.046 20.0298 20.0199 20.0138 20.0094 20.0057 20.0019 19.9978 19.9933 19.9887 19.984 19.9796 19.9756 19.9722 19.9695 19.9675 19.9663 19.966 19.9665 19.9679 19.9701 19.9731 19.9769 19.9812 19.9859 19.9909 19.9959 20.0005 20.0044 20.0073 20.0091 20.0101 20.0117 20.0165 20.0291 20.0564 20.1067 20.1881 20.3038 20.4438 20.5724 20.6129 
19.5742 19.9602 20.1383 20.1906 20.1776 20.1389 20.0965 20.0607 20.0346 20.0173 20.0066 20.0004 19.9966 19.994 19.9918 19.9896 19.9874 19.9851 19.983 19.9811 19.9796 19.9786 19.978 19.978 19.9786 19.9797 19.9814 19.9835 19.9861 19.989 19.9923 19.9958 19.9994 20.003 20.0062 20.0088 20.0105 20.0108 20.0096 20.0073 20.0049 20.0051 20.0126 20.0345 20.0806 20.1613 20.2839 20.4445 20.6154 20.729 
19.4379 19.8562 20.0681 20.1475 20.1531 20.1253 20.0884 20.0547 20.0288 20.0113 20.0005 19.9943 19.9911 19.9895 19.9885 19.9878 19.9872 19.9866 19.9861 19.9858 19.9857 19.9859 19.9865 19.9873 19.9886 19.9901 19.9918 19.9938 19.9961 19.9984 20.0008 20.0033 20.0057 20.0079 20.0097 20.0108 20.0108 20.0094 20.0063 20.0017 19.9964 19.9929 19.9958 20.0126 20.0537 20.1319 20.2582 20.435 20.6437 20.8271 
19.3155 19.7564 19.9976 20.1031 20.1279 20.1124 20.0823 20.0519 20.0272 20.0099 19.9991 19.993 19.9902 19.9891 19.989 19.9892 19.9896 19.9899 19.9903 19.9908 19.9914 19.9922 19.9931 19.9942 19.9954 19.9968 19.9982 19.9998 20.0014 20.003 20.0046 20.0061 20.0076 20.0088 20.0096 20.0097 20.0088 20.0064 20.0022 19.9961 19.9888 19.9824 19.9811 19.9926 20.0279 20.1014 20.228 20.4163 20.6569 20.9048 
19.2098 19.6633 19.9285 20.058 20.1019 20.0994 20.0772 20.0509 20.028 20.0112 20.0004 19.9944 19.9916 19.9907 19.991 19.9917 19.9925 19.9933 19.9942 19.995 19.9958 19.9966 19.9975 19.9985 19.9995 20.0005 20.0016 20.0026 20.0036 20.0045 20.0055 20.0063 20.0071 20.0077 20.0079 20.0076 20.0063 20.0035 19.9988 19.9919 19.9832 19.9743 19.9693 19.9753 20.0038 20.0707 20.194 20.3886 20.6545 20.9603 
19.1237 19.579 19.862 20.0127 20.0748 20.0857 20.072 20.0504 20.0298 20.0137 20.003 19.9968 19.9939 19.993 19.9933 19.9941 19.9951 19.996 19.997 19.9978 19.9986 19.9994 20.0001 20.0008 20.0015 20.0022 20.0028 20.0034 20.004 20.0044 20.0049 20.0053 20.0057 20.006 20.006 20.0055 20.0042 20.0014 19.9967 19.9894 19.9798 19.9689 19.9602 19.9607 19.9817 20.0401 20.1568 20.3524 20.6366 20.9921 
19.0591 19.5053 19.7994 19.9678 20.0469 20.0708 20.066 20.0495 20.0315 20.0165 20.0059 19.9995 19.9963 19.9951 19.9953 19.996 19.9969 19.9979 19.9987 19.9995 20.0002 20.0008 20.0013 20.0018 20.0022 20.0026 20.0029 20.0032 20.0034 20.0036 20.0038 20.004 20.0042 20.0043 20.0043 20.004 20.0028 20.0003 19.9958 19.9886 19.9783 19.9658 19.9538 19.9486 19.9614 20.0097 20.1167 20.3082 20.6034 20.9995 
19.0177 19.4439 19.742 19.924 20.0181 20.0546 20.0586 20.0477 20.0327 20.0189 20.0086 20.002 19.9984 19.9969 19.9968 19.9973 19.9981 19.9989 19.9997 20.0003 20.0009 20.0013 20.0017 20.002 20.0022 20.0024 20.0025 20.0026 20.0026 20.0026 20.0027 20.0028 20.0029 20.0031 20.0032 20.003 20.0022 20.0001 19.996 19.989 19.9784 19.9645 19.9494 19.9387 19.943 19.9799 20.0744 20.2569 20.5556 20.9823 
19.0005 19.3962 19.6911 19.8823 19.989 20.0372 20.0499 20.0448 20.0329 20.0207 20.0108 20.0041 20.0002 19.9983 19.9979 19.9981 19.9987 19.9994 20 20.0005 20.001 20.0013 20.0015 20.0017 20.0018 20.0019 20.0019 20.0019 20.0018 20.0018 20.0017 20.0018 20.0019 20.0022 20.0024 20.0025 20.0021 20.0005 19.9969 19.9902 19.9796 19.9647 19.9469 19.9309 19.9264 19.9509 20.0306 20.1995 20.4942 20.9409 
19.0079 19.3634 19.6478 19.8434 19.9602 20.0187 20.0399 20.0405 20.0322 20.0217 20.0125 20.0058 20.0016 19.9994 19.9986 19.9986 19.999 19.9995 20 20.0005 20.0008 20.001 20.0012 20.0013 20.0014 20.0013 20.0013 20.0012 20.0011 20.0011 20.0011 20.0011 20.0013 20.0016 20.002 20.0024 20.0023 20.0012 19.9982 19.9921 19.9817 19.9661 19.946 19.925 19.9119 19.9234 19.9861 20.1373 20.4207 20.8763 
19.0397 19.3463 19.6131 19.8084 19.9323 19.9997 20.0287 20.0351 20.0304 20.0219 20.0136 20.007 20.0027 20.0002 19.9991 19.9988 19.9991 19.9994 19.9999 20.0002 20.0005 20.0007 20.0008 20.0009 20.0009 20.0009 20.0008 20.0008 20.0007 20.0006 20.0006 20.0006 20.0009 20.0013 20.0018 20.0024 20.0027 20.0021 19.9998 19.9943 19.9843 19.9684 19.9465 19.9211 19.8997 19.8978 19.9421 20.0717 20.3368 20.7902 
19.0952 19.3453 19.5879 19.778 19.906 19.9806 20.0167 20.0287 20.0278 20.0215 20.0142 20.008 20.0036 20.0009 19.9995 19.999 19.999 19.9993 19.9997 20 20.0002 20.0004 20.0005 20.0006 20.0006 20.0006 20.0005 20.0004 20.0003 20.0003 20.0003 20.0003 20.0006 20.001 20.0017 20.0024 20.0031 20.003 20.0014 19.9967 19.9873 19.9715 19.9483 19.919 19.8898 19.8747 19.8994 20.0044 20.2446 20.6845 
19.1729 19.3604 19.5728 19.753 19.8819 19.9619 20.0043 20.0215 20.0244 20.0204 20.0143 20.0086 20.0043 20.0014 19.9998 19.9992 19.999 19.9992 19.9995 19.9997 20 20.0002 20.0003 20.0003 20.0004 20.0003 20.0003 20.0002 20.0001 20.0001 20.0001 20.0001 20.0004 20.0008 20.0016 20.0025 20.0034 20.0039 20.0029 19.9991 19.9906 19.9753 19.9513 19.9189 19.8826 19.8546 19.8592 19.9369 20.1464 20.5621 
19.271 19.3912 19.5683 19.7341 19.8607 19.9441 19.9916 20.0137 20.0203 20.0187 20.0141 20.009 20.0048 20.0019 20.0002 19.9993 19.9991 19.9991 19.9993 19.9996 19.9998 20 20.0001 20.0002 20.0002 20.0002 20.0001 20.0001 20 19.9999 19.9999 20 20.0002 20.0007 20.0014 20.0025 20.0037 20.0046 20.0044 20.0016 19.9941 19.9796 19.9554 19.9208 19.8783 19.8381 19.8224 19.8709 20.0446 20.4258 
19.3871 19.437 19.5743 19.7217 19.8429 19.9277 19.9791 20.0055 20.0156 20.0166 20.0134 20.0091 20.0052 20.0023 20.0005 19.9995 19.9991 19.9991 19.9992 19.9995 19.9997 19.9998 20 20 20.0001 20.0001 20 20 19.9999 19.9998 19.9998 19.9998 20 20.0005 20.0013 20.0024 20.0039 20.0052 20.0057 20.0039 19.9977 19.9843 19.9606 19.9245 19.8769 19.8255 19.7899 19.8081 19.9417 20.279 
19.5182 19.4966 19.5908 19.7161 19.8289 19.913 19.9672 19.9972 20.0106 20.014 20.0124 20.009 20.0055 20.0027 20.0008 19.9997 19.9992 19.9991 19.9992 19.9994 19.9996 19.9997 19.9999 20 20 20 20 19.9999 19.9999 19.9998 19.9997 19.9997 19.9999 20.0003 20.0011 20.0023 20.0039 20.0056 20.0068 20.0061 20.0013 19.9894 19.9667 19.9301 19.8785 19.8172 19.7626 19.75 19.8402 20.1253 
19.6613 19.5686 19.6174 19.7175 19.8192 19.9004 19.956 19.9889 20.0053 20.0111 20.0111 20.0087 20.0057 20.003 20.0012 20 19.9994 19.9992 19.9992 19.9994 19.9995 19.9997 19.9998 19.9999 20 20 20 19.9999 19.9998 19.9997 19.9996 19.9996 19.9997 20.0001 20.0008 20.0021 20.0038 20.0059 20.0077 20.0081 20.0048 19.9947 19.9737 19.9373 19.8831 19.8133 19.7412 19.698 19.7426 19.9686 
19.8126 19.6513 19.6534 19.7259 19.8139 19.8903 19.9459 19.9809 19.9999 20.0079 20.0096 20.0081 20.0057 20.0033 20.0014 20.0002 19.9996 19.9993 19.9993 19.9994 19.9995 19.9996 19.9998 19.9999 19.9999 20 19.9999 19.9999 19.9998 19.9997 19.9996 19.9995 19.9996 19.9999 20.0006 20.0018 20.0036 20.006 20.0085 20.0099 20.0082 20.0002 19.9812 19.9461 19.8905 19.814 19.726 19.6535 19.6513 19.8126 
19.9686 19.7425 19.6979 19.741 19.8131 19.8828 19.9371 19.9734 19.9944 20.0045 20.0077 20.0074 20.0055 20.0034 20.0017 20.0005 19.9997 19.9994 19.9993 19.9994 19.9995 19.9996 19.9998 19.9999 19.9999 19.9999 19.9999 19.9999 19.9998 19.9997 19.9996 19.9995 19.9995 19.9997 20.0003 20.0015 20.0034 20.006 20.009 20.0115 20.0114 20.0056 19.9892 19.9562 19.9006 19.8193 19.7177 19.6175 19.5687 19.6613 
20.1253 19.8401 19.7499 19.7625 19.817 19.8782 19.9298 19.9664 19.989 20.0009 20.0057 20.0064 20.0052 20.0035 20.0019 20.0007 19.9999 19.9995 19.9994 19.9994 19.9995 19.9996 19.9998 19.9999 19.9999 20 20 19.9999 19.9999 19.9997 19.9996 19.9995 19.9994 19.9995 20.0001 20.0012 20.0031 20.0058 20.0093 20.0128 20.0143 20.0109 19.9975 19.9674 19.9132 19.8291 19.7162 19.5909 19.4966 19.5182 
20.279 19.9416 19.808 19.7898 19.8253 19.8766 19.9242 19.9603 19.9839 19.9973 20.0034 20.0052 20.0047 20.0034 20.002 20.0008 20.0001 19.9996 19.9995 19.9995 19.9995 19.9997 19.9998 19.9999 20 20 20 20 19.9999 19.9998 19.9997 19.9995 19.9994 19.9994 19.9998 20.0008 20.0027 20.0056 20.0094 20.0137 20.0169 20.0159 20.0058 19.9794 19.9279 19.843 19.7218 19.5744 19.437 19.3871 
20.4258 20.0445 19.8707 19.8222 19.8378 19.878 19.9204 19.955 19.9791 19.9936 20.0011 20.0039 20.0041 20.0032 20.002 20.001 20.0002 19.9998 19.9996 19.9996 19.9996 19.9997 19.9999 20 20.0001 20.0001 20.0002 20.0002 20.0001 20 19.9998 19.9996 19.9994 19.9994 19.9996 20.0005 20.0022 20.0051 20.0093 20.0143 20.019 20.0205 20.0139 19.9918 19.9443 19.8608 19.7342 19.5683 19.3912 19.271 
20.5621 20.1463 19.9367 19.8589 19.8543 19.8823 19.9185 19.9508 19.9747 19.9901 19.9986 20.0023 20.0033 20.0029 20.002 20.0011 20.0004 19.9999 19.9997 19.9997 19.9998 19.9999 20 20.0002 20.0003 20.0004 20.0004 20.0004 20.0003 20.0002 20 19.9997 19.9995 19.9993 19.9995 20.0001 20.0017 20.0045 20.0089 20.0146 20.0206 20.0245 20.0217 20.0044 19.9621 19.882 19.7531 19.5729 19.3604 19.1729 
20.6845 20.2445 20.0042 19.8991 19.8743 19.8894 19.9185 19.9477 19.9709 19.9867 19.9961 20.0007 20.0024 20.0025 20.0019 20.0012 20.0006 20.0002 20 20 20 20.0002 20.0003 20.0005 20.0006 20.0007 20.0007 20.0007 20.0006 20.0004 20.0002 19.9999 19.9996 19.9993 19.9993 19.9998 20.0011 20.0038 20.0082 20.0143 20.0216 20.0279 20.0288 20.0168 19.9807 19.906 19.778 19.5879 19.3453 19.0952 
20.7902 20.3367 20.0715 19.9417 19.8974 19.8991 19.9205 19.9459 19.9678 19.9837 19.9937 19.9991 20.0015 20.0021 20.0019 20.0014 20.0009 20.0006 20.0004 20.0004 20.0005 20.0006 20.0008 20.0009 20.001 20.0011 20.0011 20.001 20.0009 20.0007 20.0005 20.0001 19.9997 19.9992 19.999 19.9992 20.0003 20.0028 20.0071 20.0136 20.0219 20.0304 20.0351 20.0287 19.9997 19.9323 19.8083 19.6131 19.3463 19.0397 
20.8763 20.4205 20.1371 19.9858 19.923 19.9114 19.9244 19.9454 19.9655 19.9811 19.9915 19.9977 20.0007 20.0019 20.002 20.0017 20.0014 20.0012 20.0011 20.0011 20.0011 20.0013 20.0014 20.0015 20.0016 20.0016 20.0015 20.0014 20.0012 20.001 20.0006 20.0001 19.9996 19.999 19.9985 19.9985 19.9993 20.0014 20.0056 20.0123 20.0214 20.0319 20.0403 20.0397 20.0186 19.9601 19.8433 19.6477 19.3634 19.0079 
20.9409 20.4941 20.1993 20.0303 19.9506 19.926 19.9304 19.9464 19.9642 19.9792 19.9899 19.9966 20.0002 20.0019 20.0025 20.0025 20.0023 20.0021 20.002 20.002 20.0021 20.0021 20.0022 20.0022 20.0021 20.002 20.0019 20.0017 20.0014 20.001 20.0005 19.9999 19.9991 19.9984 19.9977 19.9974 19.9979 19.9997 20.0036 20.0103 20.0202 20.0325 20.0444 20.0496 20.0369 19.9889 19.8822 19.691 19.3962 19.0005 
20.9823 20.5556 20.2569 20.0743 19.9798 19.9429 19.9386 19.9493 19.9644 19.9784 19.989 19.9962 20.0004 20.0025 20.0034 20.0037 20.0036 20.0035 20.0034 20.0033 20.0032 20.0031 20.003 20.0028 20.0026 20.0023 20.0019 20.0015 20.001 20.0004 19.9998 19.999 19.9982 19.9972 19.9964 19.9958 19.996 19.9975 20.0011 20.0078 20.0182 20.032 20.0472 20.0583 20.0544 20.018 19.924 19.742 19.4439 19.0177 
20.9995 20.6036 20.3085 20.1171 20.0102 19.962 19.9492 19.9544 19.9665 19.9791 19.9895 19.9968 20.0014 20.0039 20.0051 20.0054 20.0054 20.0052 20.0049 20.0046 20.0043 20.0039 20.0035 20.003 20.0025 20.0019 20.0012 20.0005 19.9998 19.999 19.9982 19.9973 19.9963 19.9953 19.9944 19.9937 19.9936 19.9948 19.9982 20.0048 20.0156 20.0309 20.0492 20.0658 20.0709 20.047 19.968 19.7996 19.5054 19.0591 
20.9921 20.6371 20.3533 20.158 20.0416 19.9834 19.9626 19.9622 19.971 19.9819 19.9915 19.9988 20.0035 20.0062 20.0074 20.0077 20.0075 20.007 20.0064 20.0056 20.0049 20.004 20.0031 20.0022 20.0012 20.0002 19.9992 19.9982 19.9972 19.9963 19.9954 19.9944 19.9935 19.9926 19.9917 19.991 19.9909 19.9921 19.9954 20.002 20.0131 20.0295 20.0506 20.0725 20.0865 20.0757 20.0135 19.8626 19.5793 19.1237 
20.9603 20.6555 20.3904 20.1966 20.0739 20.0074 19.9791 19.9732 19.9783 19.987 19.9956 20.0023 20.0067 20.0092 20.0101 20.01 20.0093 20.0082 20.0069 20.0055 20.004 20.0025 20.0009 19.9994 19.9979 19.9964 19.9951 19.9939 19.9928 19.9918 19.991 19.9903 19.9897 19.9891 19.9886 19.9883 19.9886 19.99 19.9934 20.0001 20.0116 20.029 20.0524 20.0792 20.1016 20.104 20.0599 19.9299 19.6641 19.2098 
20.9048 20.6585 20.4194 20.2324 20.1068 20.034 19.999 19.9876 19.9886 19.9947 20.0015 20.007 20.0105 20.0121 20.0122 20.0113 20.0096 20.0075 20.0052 20.0027 20.0003 19.9979 19.9956 19.9934 19.9915 19.9897 19.9883 19.9871 19.9862 19.9856 19.9853 19.9853 19.9854 19.9857 19.9861 19.9867 19.9878 19.9898 19.9937 20.0007 20.0125 20.0307 20.056 20.0869 20.117 20.1322 20.1067 20.0002 19.7578 19.3155 
20.8271 20.6462 20.4398 20.2649 20.14 20.0627 20.0219 20.0049 20.0015 20.0041 20.0082 20.0116 20.0134 20.0134 20.0119 20.0094 20.0062 20.0026 19.999 19.9953 19.9918 19.9886 19.9856 19.9831 19.981 19.9794 19.9783 19.9778 19.9778 19.9783 19.9793 19.9806 19.9823 19.9842 19.9862 19.9883 19.9907 19.9938 19.9985 20.0059 20.0179 20.0365 20.063 20.0969 20.1335 20.1604 20.1534 20.0722 19.8583 19.4379 
20.729 20.6188 20.4509 20.2928 20.1721 20.0923 20.0463 20.0236 20.0149 20.0129 20.0133 20.0134 20.0123 20.0097 20.0058 20.0011 19.9959 19.9906 19.9855 19.9807 19.9764 19.9727 19.9697 19.9676 19.9662 19.9657 19.966 19.9672 19.9692 19.9719 19.9753 19.9792 19.9834 19.9877 19.9921 19.9964 20.0006 20.0051 20.0106 20.0184 20.0303 20.0484 20.0749 20.1102 20.1515 20.1884 20.1989 20.1438 19.9629 19.5742 
20.6129 20.5762 20.451 20.3138 20.1999 20.1192 20.0684 20.0395 20.0245 20.0167 20.0118 20.0073 20.0022 19.9961 19.9892 19.9819 19.9747 19.9678 19.9617 19.9565 19.9523 19.9494 19.9477 19.9474 19.9484 19.9507 19.9542 19.9588 19.9645 19.971 19.9782 19.9858 19.9936 20.0013 20.0086 20.0154 20.0216 20.0274 20.0334 20.0408 20.0514 20.0677 20.0922 20.1267 20.1699 20.2141 20.2403 20.2118 20.068 19.721 
20.4818 20.5177 20.4368 20.3227 20.2175 20.1366 20.081 20.0452 20.0226 20.0076 19.9961 19.9859 19.9759 19.9659 19.956 19.9466 19.9381 19.9309 19.9254 19.9216 19.9198 19.92 19.9222 19.9263 19.9323 19.9399 19.9491 19.9595 19.9709 19.983 19.9955 20.008 20.0202 20.0316 20.0419 20.0508 20.0581 20.064 20.069 20.0742 20.0814 20.0932 20.1129 20.143 20.1844 20.2323 20.2718 20.27 20.1682 19.8747 
20.3387 20.441 20.402 20.3104 20.2139 20.1329 20.072 20.0284 19.9973 19.9741 19.9554 19.9392 19.9247 19.9116 19.9001 19.8906 19.8835 19.8791 19.8775 19.8789 19.8833 19.8906 19.9006 19.9131 19.9277 19.9442 19.962 19.9808 20 20.0192 20.038 20.0557 20.0719 20.0861 20.0978 20.1068 20.1128 20.1159 20.1166 20.116 20.116 20.1193 20.1296 20.1507 20.1853 20.2322 20.2817 20.3072 20.255 20.0314 
20.1874 20.3409 20.3351 20.2617 20.1721 20.0901 20.0234 19.9719 19.9324 19.9015 19.8768 19.8566 19.8402 19.8275 19.8186 19.8139 19.8134 19.8174 19.8258 19.8385 19.8551 19.8753 19.8986 19.9244 19.9521 19.981 20.0103 20.0395 20.0676 20.0941 20.1182 20.1394 20.157 20.1705 20.1795 20.1838 20.1832 20.1779 20.1685 20.1563 20.1431 20.132 20.1269 20.1327 20.1543 20.1944 20.2498 20.3039 20.3132 20.1874 
20.0314 20.2074 20.2175 20.1534 20.0671 19.9835 19.9121 19.8546 19.8096 19.775 19.749 19.7306 19.7192 19.7146 19.7167 19.7256 19.741 19.7626 19.79 19.8225 19.8595 19.8999 19.9427 19.987 20.0316 20.0755 20.1175 20.1566 20.1919 20.2224 20.2475 20.2664 20.2786 20.2838 20.2818 20.2725 20.2563 20.2335 20.2052 20.1727 20.1384 20.1054 20.0779 20.0616 20.063 20.089 20.1446 20.2276 20.3159 20.3387 
19.8747 20.0221 20.0204 19.9535 19.8672 19.7838 19.7125 19.656 19.614 19.5856 19.5697 19.5654 19.572 19.5892 19.6164 19.6528 19.6976 19.7497 19.808 19.871 19.9371 20.0048 20.0724 20.1383 20.2007 20.2582 20.3093 20.3529 20.3877 20.413 20.4281 20.4327 20.4265 20.4097 20.3826 20.3459 20.3005 20.2475 20.1885 20.1255 20.0611 19.9987 19.9425 19.8984 19.8736 19.8777 19.9236 20.028 20.21 20.4818 
19.721 19.7494 19.7024 19.6227 19.5386 19.4645 19.4065 19.3669 19.3459 19.3432 19.3578 19.3888 19.435 19.4951 19.5675 19.6505 19.7421 19.84 19.9417 20.0449 20.147 20.2455 20.3379 20.422 20.4958 20.5573 20.6051 20.638 20.6552 20.6563 20.6412 20.6103 20.5643 20.5044 20.4319 20.3488 20.2569 20.1586 20.0564 19.9532 19.852 19.7563 19.6701 19.5982 19.5465 19.5236 19.5443 19.6386 19.8802 20.6129 
19.5742 19.3155 19.2098 19.1237 19.0591 19.0177 19.0005 19.0079 19.0397 19.0952 19.1729 19.271 19.3871 19.5182 19.6613 19.8126 19.9686 20.1253 20.279 20.4258 20.5621 20.6845 20.7902 20.8763 20.9409 20.9823 20.9995 20.9921 20.9603 20.9048 20.8271 20.729 20.6129 20.4818 20.3387 20.1874 20.0314 19.8747 19.721 19.5742 19.4379 19.3155 19.2098 19.1237 19.0591 19.0177 19.0005 19.0079 19.0397 20.729 
