# vtk DataFile Version 3.0
Temperature distribution on a 2D grid
ASCII

DATASET STRUCTURED_POINTS
DIMENSIONS 50 50 1
ORIGIN 0.0 0.0 0.0
SPACING 0.01 0.01 1.0

POINT_DATA 2500
SCALARS temperature double
LOOKUP_TABLE default
19.546 20.309 20.1564 20 19.8436 19.691 19.546 19.4122 19.2929 19.191 19.109 19.0489 19.0123 19 19.0123 19.0489 19.109 19.191 19.2929 19.4122 19.546 19.691 19.8436 20 20.1564 20.309 20.454 20.5878 20.7071 20.809 20.891 20.9511 20.9877 21 20.9877 20.9511 20.891 20.809 20.7071 20.5878 20.454 20.309 20.1564 20 19.8436 19.691 19.546 19.4122 19.2929 19.109 
19.4122 19.8052 19.8456 19.7918 19.7074 19.6181 19.5352 19.4645 19.4091 19.3703 19.3488 19.3447 19.3577 19.387 19.4318 19.4907 19.5622 19.6445 19.7355 19.8331 19.9347 20.0379 20.1402 20.239 20.3319 20.4166 20.4911 20.5535 20.6023 20.6363 20.6545 20.6567 20.6426 20.6128 20.5678 20.5089 20.4375 20.3555 20.2651 20.1686 20.0685 19.9672 19.8665 19.7675 19.6698 19.5709 19.4658 19.3479 19.2113 19.0489 
19.2929 19.6242 19.7427 19.7582 19.7286 19.6846 19.6422 19.6091 19.5889 19.5824 19.5895 19.6092 19.6402 19.6812 19.7306 19.787 19.8487 19.9142 19.9817 20.0497 20.1164 20.1802 20.2395 20.293 20.3392 20.3771 20.4057 20.4243 20.4324 20.4299 20.4168 20.3935 20.3604 20.3184 20.2686 20.2122 20.1507 20.0859 20.0195 19.9536 19.8899 19.8299 19.774 19.721 19.6669 19.6039 19.5197 19.3992 19.2296 19.0123 
19.191 19.5436 19.7216 19.7924 19.8058 19.7942 19.7767 19.7635 19.7592 19.7652 19.781 19.8055 19.8372 19.8743 19.9154 19.959 20.0037 20.0485 20.0919 20.1331 20.1709 20.2045 20.233 20.2558 20.2723 20.282 20.2848 20.2807 20.2696 20.2518 20.2279 20.1983 20.1638 20.1252 20.0835 20.0398 19.9954 19.9515 19.9097 19.8715 19.8381 19.8103 19.7877 19.7673 19.7426 19.7018 19.6273 19.4965 19.289 19 
19.109 19.4926 19.7193 19.8352 19.883 19.8953 19.8933 19.8895 19.8901 19.8975 19.9118 19.9319 19.9564 19.9837 20.0126 20.0416 20.0698 20.0964 20.1206 20.1417 20.1592 20.1728 20.1821 20.1869 20.1871 20.1827 20.1738 20.1606 20.1435 20.1228 20.0991 20.0729 20.0449 20.0156 19.986 19.9568 19.9289 19.9033 19.8812 19.8638 19.852 19.8464 19.8458 19.8467 19.841 19.8144 19.7452 19.6052 19.3659 19.0123 
19.0489 19.4499 19.7114 19.8621 19.9371 19.9675 19.9757 19.9761 19.9766 19.9807 19.9893 20.002 20.0174 20.0344 20.0518 20.0685 20.0838 20.0971 20.108 20.1161 20.1213 20.1235 20.1225 20.1186 20.1117 20.1021 20.0899 20.0756 20.0594 20.0417 20.023 20.0037 19.9842 19.965 19.9466 19.9296 19.9146 19.9023 19.8937 19.8898 19.8915 19.8993 19.9122 19.9262 19.933 19.9169 19.8536 19.7102 19.4509 19.0489 
19.0123 19.4115 19.6927 19.8678 19.9637 20.0082 20.024 20.0266 20.0255 20.0254 20.028 20.0334 20.0408 20.0493 20.0579 20.0657 20.0723 20.0772 20.0801 20.081 20.0799 20.0767 20.0716 20.0646 20.0561 20.0463 20.0352 20.0234 20.0109 19.9982 19.9855 19.9731 19.9613 19.9503 19.9405 19.9321 19.9256 19.9217 19.921 19.9246 19.9336 19.9486 19.9688 19.991 20.0067 20.0002 19.9457 19.8069 19.541 19.109 
19 19.3793 19.666 19.8561 19.9671 20.023 20.0452 20.05 20.0477 20.0441 20.0419 20.0417 20.0432 20.0457 20.0484 20.0508 20.0522 20.0525 20.0515 20.0491 20.0455 20.0407 20.0348 20.0281 20.0207 20.0127 20.0045 19.9961 19.9879 19.9799 19.9725 19.9656 19.9595 19.9542 19.95 19.9469 19.9453 19.9457 19.9488 19.9558 19.9677 19.9857 20.0097 20.0369 20.0599 20.0635 20.0213 19.8949 19.6351 19.191 
19.0123 19.3563 19.6365 19.8333 19.9548 20.0198 20.0481 20.0555 20.0532 20.0476 20.0423 20.0385 20.0362 20.035 20.0343 20.0336 20.0326 20.0309 20.0284 20.0252 20.0213 20.0168 20.0119 20.0066 20.0012 19.9958 19.9904 19.9853 19.9806 19.9764 19.9727 19.9696 19.9672 19.9654 19.9643 19.9639 19.9645 19.9666 19.9708 19.9784 19.9907 20.0093 20.0348 20.0654 20.095 20.1094 20.0829 19.9754 19.7329 19.2929 
19.0489 19.3454 19.609 19.8056 19.9335 20.0059 20.0399 20.0508 20.0496 20.0436 20.0368 20.031 20.0267 20.0235 20.0212 20.0192 20.0172 20.015 20.0125 20.0096 20.0065 20.0031 19.9996 19.9961 19.9927 19.9895 19.9865 19.9839 19.9817 19.9799 19.9786 19.9778 19.9774 19.9774 19.9777 19.9783 19.9795 19.9816 19.9854 19.9921 20.0035 20.0213 20.0471 20.0802 20.1159 20.1418 20.1332 20.0498 19.8336 19.4122 
19.109 19.3486 19.5874 19.7779 19.9085 19.9867 20.0262 20.041 20.0421 20.0369 20.0299 20.0234 20.0182 20.0142 20.0113 20.0089 20.0069 20.005 20.003 20.0009 19.9988 19.9967 19.9946 19.9926 19.9907 19.9891 19.9878 19.9868 19.9861 19.9858 19.9858 19.9861 19.9866 19.9872 19.9879 19.9886 19.9895 19.9909 19.9935 19.9987 20.0084 20.0248 20.0502 20.0851 20.1265 20.1639 20.1747 20.119 19.9364 19.546 
19.191 19.3668 19.5742 19.7534 19.8837 19.9659 20.0105 20.0295 20.0334 20.0299 20.0236 20.0173 20.0119 20.0079 20.0049 20.0027 20.001 19.9996 19.9982 19.997 19.9958 19.9946 19.9936 19.9927 19.9919 19.9914 19.9911 19.991 19.9911 19.9915 19.9921 19.9928 19.9935 19.9942 19.9947 19.995 19.9952 19.9956 19.9969 20.0004 20.0081 20.0228 20.0473 20.0834 20.1298 20.1783 20.2088 20.1831 20.0396 19.691 
19.2929 19.4003 19.5709 19.7345 19.8612 19.9458 19.9947 20.0179 20.0251 20.0237 20.0188 20.0131 20.008 20.0042 20.0014 19.9995 19.9982 19.9972 19.9965 19.9959 19.9954 19.995 19.9946 19.9944 19.9943 19.9943 19.9945 19.9948 19.9953 19.9959 19.9966 19.9973 19.998 19.9985 19.9986 19.9985 19.9979 19.9973 19.9972 19.9991 20.0049 20.0177 20.0408 20.0774 20.1279 20.1867 20.2365 20.2418 20.1413 19.8436 
19.4122 19.4486 19.5782 19.7221 19.8424 19.9275 19.9798 20.007 20.0175 20.0186 20.0152 20.0105 20.006 20.0025 20 19.9983 19.9973 19.9968 19.9964 19.9963 19.9962 19.9962 19.9963 19.9964 19.9966 19.9969 19.9973 19.9977 19.9983 19.9988 19.9995 20 20.0005 20.0007 20.0006 19.9999 19.9988 19.9973 19.9961 19.9964 20.0003 20.011 20.0325 20.0689 20.1224 20.19 20.258 20.2942 20.2394 20 
19.546 19.5105 19.5961 19.717 19.828 19.9118 19.9663 19.9969 20.0107 20.0143 20.0126 20.009 20.0051 20.002 19.9997 19.9983 19.9975 19.9972 19.9971 19.9972 19.9973 19.9976 19.9978 19.9981 19.9984 19.9988 19.9992 19.9996 20 20.0005 20.001 20.0014 20.0016 20.0016 20.0012 20.0003 19.9987 19.9966 19.9944 19.9934 19.9955 20.004 20.0234 20.0586 20.1139 20.1888 20.2733 20.3395 20.3317 20.1564 
19.691 19.5846 19.6242 19.7192 19.8183 19.8987 19.9544 19.9877 20.0044 20.0105 20.0106 20.0081 20.0049 20.0022 20.0001 19.9988 19.9982 19.9979 19.9979 19.9981 19.9984 19.9987 19.999 19.9993 19.9996 19.9999 20.0003 20.0006 20.0009 20.0013 20.0016 20.0019 20.002 20.0018 20.0013 20.0001 19.9983 19.9957 19.9928 19.9905 19.9909 19.9971 20.014 20.0474 20.1029 20.1832 20.2821 20.3767 20.4159 20.309 
19.8436 19.669 19.6618 19.7285 19.8135 19.8887 19.944 19.9793 19.9986 20.0069 20.0088 20.0074 20.005 20.0026 20.0007 19.9995 19.9989 19.9987 19.9987 19.9989 19.9992 19.9995 19.9998 20 20.0003 20.0005 20.0008 20.001 20.0013 20.0015 20.0017 20.0019 20.0019 20.0017 20.0011 19.9999 19.9979 19.995 19.9915 19.9882 19.9868 19.9907 20.0047 20.0353 20.0899 20.1735 20.2843 20.4047 20.49 20.454 
20 19.7616 19.7077 19.7448 19.8135 19.8816 19.9353 19.9717 19.993 20.0034 20.0069 20.0068 20.005 20.003 20.0013 20.0002 19.9995 19.9992 19.9992 19.9994 19.9996 19.9999 20.0001 20.0004 20.0006 20.0008 20.0009 20.0011 20.0012 20.0014 20.0015 20.0016 20.0016 20.0014 20.0009 19.9997 19.9977 19.9947 19.9907 19.9865 19.9835 19.9849 19.9956 20.0228 20.075 20.1598 20.2797 20.423 20.5521 20.5878 
20.1564 19.8602 19.761 19.7674 19.8182 19.8775 19.9284 19.9649 19.9878 19.9999 20.005 20.0059 20.0049 20.0033 20.0018 20.0007 20 19.9997 19.9996 19.9997 19.9999 20.0001 20.0003 20.0005 20.0006 20.0007 20.0008 20.0009 20.001 20.0011 20.0012 20.0013 20.0014 20.0012 20.0007 19.9997 19.9977 19.9947 19.9904 19.9853 19.9808 19.9798 19.987 20.0101 20.0585 20.1425 20.2684 20.431 20.6007 20.7071 
20.309 19.9621 19.8202 19.7958 19.8274 19.8766 19.9232 19.959 19.9828 19.9965 20.0029 20.0049 20.0046 20.0034 20.0021 20.001 20.0003 19.9999 19.9998 19.9998 20 20.0001 20.0003 20.0004 20.0005 20.0006 20.0007 20.0007 20.0008 20.0009 20.001 20.0011 20.0011 20.0011 20.0007 19.9998 19.998 19.9949 19.9905 19.9847 19.9788 19.9753 19.9789 19.9972 20.0407 20.1218 20.2506 20.4285 20.6345 20.809 
20.454 20.0651 19.8838 19.8293 19.8409 19.8786 19.9199 19.9542 19.9783 19.993 20.0007 20.0037 20.0041 20.0033 20.0022 20.0012 20.0005 20.0001 19.9999 19.9999 20 20.0001 20.0002 20.0003 20.0004 20.0004 20.0005 20.0005 20.0006 20.0006 20.0007 20.0009 20.001 20.001 20.0008 20 19.9984 19.9955 19.9909 19.9846 19.9775 19.9716 19.9714 19.9845 20.0221 20.0981 20.2267 20.4154 20.6527 20.891 
20.5878 20.1664 19.9502 19.8669 19.8582 19.8837 19.9186 19.9504 19.9742 19.9897 19.9984 20.0023 20.0034 20.0031 20.0022 20.0013 20.0006 20.0002 20 19.9999 19.9999 20 20.0001 20.0002 20.0002 20.0003 20.0003 20.0003 20.0004 20.0004 20.0005 20.0007 20.0009 20.001 20.0009 20.0003 19.9989 19.9962 19.9916 19.985 19.9767 19.9686 19.9647 19.9723 20.0029 20.0721 20.1973 20.3922 20.6549 20.9511 
20.7071 20.2636 20.0179 19.9078 19.8791 19.8916 19.9192 19.9477 19.9707 19.9866 19.996 20.0008 20.0026 20.0027 20.0021 20.0013 20.0007 20.0002 20 19.9999 19.9999 19.9999 20 20.0001 20.0001 20.0002 20.0002 20.0002 20.0002 20.0003 20.0004 20.0005 20.0008 20.001 20.001 20.0007 19.9995 19.997 19.9926 19.9858 19.9766 19.9665 19.9589 19.9607 19.9837 20.0443 20.163 20.3593 20.6409 20.9877 
20.809 20.3544 20.0851 19.9509 19.9029 19.9021 19.9218 19.9464 19.9679 19.9837 19.9938 19.9993 20.0017 20.0022 20.0019 20.0013 20.0007 20.0003 20 19.9999 19.9998 19.9999 19.9999 20 20 20.0001 20.0001 20.0001 20.0001 20.0002 20.0003 20.0004 20.0007 20.001 20.0012 20.001 20.0002 19.998 19.9938 19.9869 19.977 19.9651 19.954 19.9502 19.9648 20.0154 20.1247 20.3175 20.6112 21 
20.891 20.4364 20.1502 19.9953 19.9291 19.915 19.9263 19.9463 19.9659 19.9813 19.9916 19.9977 20.0007 20.0017 20.0017 20.0012 20.0007 20.0003 20 19.9999 19.9998 19.9998 19.9999 19.9999 20 20 20 20 20 20.0001 20.0002 20.0004 20.0007 20.001 20.0013 20.0014 20.0008 19.999 19.9951 19.9883 19.978 19.9646 19.9503 19.9408 19.9468 19.9861 20.0833 20.2679 20.5664 20.9877 
20.9511 20.5076 20.2116 20.0397 19.957 19.9299 19.9326 19.9475 19.9647 19.9792 19.9897 19.9962 19.9996 20.0011 20.0014 20.0011 20.0007 20.0003 20 19.9999 19.9998 19.9998 19.9999 19.9999 19.9999 20 20 20 20 20 20.0001 20.0003 20.0006 20.001 20.0015 20.0017 20.0014 20 19.9965 19.99 19.9796 19.965 19.9478 19.9328 19.9302 19.9571 20.0398 20.2117 20.5076 20.9511 
20.9877 20.5663 20.2678 20.0831 19.9859 19.9466 19.9405 19.95 19.9643 19.9777 19.9879 19.9947 19.9986 20.0004 20.001 20.001 20.0007 20.0003 20.0001 19.9999 19.9999 19.9999 19.9999 19.9999 20 20 20 20 20 20 20.0001 20.0003 20.0006 20.001 20.0015 20.002 20.002 20.001 19.998 19.9919 19.9816 19.9662 19.9466 19.9265 19.9152 19.9292 19.9954 20.1503 20.4364 20.891 
21 20.6111 20.3174 20.1245 20.0152 19.9646 19.9499 19.9537 19.9648 19.9767 19.9865 19.9934 19.9976 19.9998 20.0007 20.0008 20.0006 20.0004 20.0002 20 19.9999 19.9999 19.9999 20 20 20 20 20 20 20 20.0001 20.0002 20.0005 20.001 20.0016 20.0022 20.0025 20.002 19.9995 19.9941 19.984 19.9682 19.9466 19.922 19.9022 19.903 19.951 20.0852 20.3544 20.809 
20.9877 20.6409 20.3591 20.1628 20.0441 19.9834 19.9604 19.9585 19.9661 19.9762 19.9854 19.9922 19.9966 19.9991 20.0003 20.0007 20.0006 20.0005 20.0003 20.0001 20.0001 20 20.0001 20.0001 20.0001 20.0001 20.0001 20.0001 20 20 20 20.0002 20.0005 20.0009 20.0016 20.0024 20.003 20.0028 20.0011 19.9963 19.9868 19.9709 19.9479 19.9194 19.8917 19.8792 19.9079 20.018 20.2637 20.7071 
20.9511 20.6548 20.3921 20.1971 20.0719 20.0026 19.972 19.9644 19.9683 19.9764 19.9846 19.9912 19.9958 19.9985 20 20.0005 20.0006 20.0006 20.0004 20.0003 20.0002 20.0002 20.0002 20.0002 20.0002 20.0002 20.0002 20.0002 20.0001 20 20 20.0001 20.0004 20.0008 20.0015 20.0024 20.0033 20.0036 20.0025 19.9985 19.9899 19.9744 19.9505 19.9187 19.8838 19.8583 19.867 19.9503 20.1664 20.5878 
20.891 20.6527 20.4153 20.2266 20.0979 20.0218 19.9842 19.9711 19.9712 19.9771 19.9843 19.9905 19.9951 19.9981 19.9997 20.0005 20.0007 20.0007 20.0006 20.0005 20.0005 20.0004 20.0004 20.0004 20.0004 20.0004 20.0003 20.0002 20.0001 20 20 20 20.0002 20.0006 20.0013 20.0023 20.0034 20.0042 20.0038 20.0008 19.9931 19.9784 19.9543 19.92 19.8787 19.8409 19.8293 19.8838 20.0651 20.454 
20.809 20.6344 20.4284 20.2505 20.1216 20.0406 19.997 19.9787 19.975 19.9786 19.9844 19.9902 19.9947 19.9977 19.9995 20.0005 20.0009 20.0009 20.0009 20.0008 20.0007 20.0007 20.0006 20.0006 20.0005 20.0005 20.0004 20.0002 20.0001 19.9999 19.9998 19.9998 19.9999 20.0003 20.001 20.0021 20.0034 20.0046 20.0049 20.0029 19.9965 19.9829 19.9591 19.9233 19.8766 19.8274 19.7959 19.8202 19.9622 20.309 
20.7071 20.6006 20.431 20.2684 20.1424 20.0584 20.01 19.9869 19.9796 19.9807 19.9852 19.9902 19.9945 19.9976 19.9995 20.0006 20.0011 20.0012 20.0012 20.0011 20.001 20.0009 20.0008 20.0007 20.0006 20.0005 20.0003 20.0001 19.9999 19.9997 19.9995 19.9994 19.9995 19.9998 20.0005 20.0016 20.0032 20.0048 20.0059 20.005 19.9999 19.9878 19.965 19.9284 19.8776 19.8183 19.7675 19.7611 19.8602 20.1564 
20.5878 20.5521 20.4231 20.2798 20.16 20.0751 20.023 19.9958 19.985 19.9836 19.9866 19.9908 19.9947 19.9977 19.9997 20.0009 20.0014 20.0016 20.0015 20.0014 20.0012 20.001 20.0008 20.0006 20.0004 20.0002 20 19.9997 19.9995 19.9992 19.999 19.9988 19.9988 19.9991 19.9998 20.001 20.0028 20.0048 20.0066 20.0069 20.0034 19.9931 19.9718 19.9355 19.8818 19.8136 19.7449 19.7079 19.7617 20 
20.454 20.4901 20.405 20.2846 20.1739 20.0904 20.0358 20.0052 19.9912 19.9873 19.9886 19.9919 19.9953 19.9981 20 20.0011 20.0017 20.0018 20.0017 20.0014 20.0011 20.0008 20.0005 20.0002 19.9999 19.9996 19.9993 19.999 19.9987 19.9984 19.9982 19.998 19.998 19.9983 19.999 20.0004 20.0023 20.0048 20.0074 20.0088 20.0071 19.9988 19.9796 19.9444 19.8891 19.8139 19.7289 19.662 19.6691 19.8436 
20.309 20.4161 20.3771 20.2827 20.184 20.1038 20.0483 20.0149 19.998 19.9917 19.9913 19.9934 19.9962 19.9986 20.0003 20.0013 20.0017 20.0017 20.0014 20.001 20.0005 20 19.9996 19.9992 19.9988 19.9984 19.9981 19.9978 19.9975 19.9972 19.9971 19.997 19.9971 19.9975 19.9983 19.9998 20.002 20.005 20.0083 20.011 20.011 20.0051 19.9884 19.9552 19.8995 19.819 19.7197 19.6246 19.5848 19.691 
20.1564 20.3321 20.3403 20.2743 20.19 20.1153 20.0601 20.0248 20.0054 19.9967 19.9944 19.9952 19.9971 19.9989 20.0002 20.0009 20.001 20.0008 20.0003 19.9997 19.999 19.9984 19.9978 19.9973 19.9969 19.9965 19.9962 19.996 19.9959 19.9959 19.9959 19.996 19.9963 19.9969 19.998 19.9997 20.0023 20.0057 20.0098 20.0137 20.0155 20.0121 19.9984 19.9678 19.9131 19.8292 19.7179 19.5968 19.5108 19.546 
20 20.2399 20.2952 20.2594 20.1917 20.1242 20.0707 20.0343 20.0126 20.0016 19.9974 19.9966 19.9974 19.9984 19.9991 19.9993 19.9991 19.9986 19.9978 19.997 19.9962 19.9955 19.9949 19.9944 19.9941 19.9939 19.9939 19.994 19.9943 19.9946 19.995 19.9956 19.9963 19.9973 19.9987 20.0008 20.0037 20.0076 20.0124 20.0174 20.021 20.02 20.0094 19.9821 19.9296 19.8441 19.7234 19.5791 19.449 19.4122 
19.8436 20.1418 20.2428 20.2379 20.1884 20.1298 20.0792 20.0424 20.0189 20.0057 19.9993 19.9968 19.9962 19.9962 19.9962 19.9958 19.9952 19.9943 19.9934 19.9925 19.9917 19.9911 19.9907 19.9906 19.9907 19.991 19.9916 19.9923 19.9932 19.9943 19.9954 19.9966 19.998 19.9995 20.0014 20.0039 20.0072 20.0114 20.0168 20.0227 20.0277 20.029 20.0216 19.998 19.9486 19.8633 19.736 19.5719 19.4008 19.2929 
19.691 20.0398 20.1837 20.2096 20.1792 20.1307 20.0841 20.0475 20.0225 20.0071 19.9986 19.9942 19.9921 19.991 19.9902 19.9893 19.9883 19.9874 19.9865 19.9859 19.9855 19.9854 19.9858 19.9864 19.9875 19.9888 19.9904 19.9922 19.9942 19.9963 19.9984 20.0006 20.0027 20.0049 20.0073 20.01 20.0135 20.0179 20.0234 20.0297 20.0357 20.0388 20.0342 20.0144 19.9689 19.8857 19.7547 19.5748 19.3671 19.191 
19.546 19.9359 20.1182 20.1736 20.1625 20.1247 20.0828 20.0472 20.0211 20.0037 19.9931 19.987 19.9834 19.9813 19.9799 19.9788 19.978 19.9775 19.9773 19.9776 19.9783 19.9796 19.9813 19.9836 19.9862 19.9892 19.9924 19.9958 19.9993 20.0028 20.0061 20.0092 20.0121 20.0148 20.0174 20.0201 20.0233 20.0272 20.0321 20.0381 20.0442 20.0483 20.0459 20.0296 19.9886 19.9091 19.7775 19.5867 19.3481 19.109 
19.4122 19.8316 20.0461 20.128 20.1354 20.1086 20.072 20.0379 20.0113 19.9925 19.9803 19.9728 19.9684 19.9659 19.9647 19.9643 19.9645 19.9655 19.9671 19.9694 19.9724 19.9761 19.9803 19.985 19.9901 19.9955 20.0009 20.0063 20.0116 20.0165 20.0209 20.0248 20.028 20.0306 20.0327 20.0345 20.0363 20.0385 20.0417 20.046 20.051 20.0548 20.0536 20.0403 20.004 19.9299 19.8013 19.6051 19.3431 19.0489 
19.2929 19.728 19.9662 20.0702 20.0941 20.078 20.0471 20.0155 19.9894 19.9703 19.9576 19.95 19.9461 19.9447 19.9452 19.9471 19.9502 19.9543 19.9594 19.9654 19.9722 19.9797 19.9876 19.9958 20.0042 20.0124 20.0204 20.0278 20.0345 20.0403 20.0451 20.0487 20.0511 20.0522 20.0522 20.0514 20.0502 20.0491 20.0488 20.0496 20.0516 20.0534 20.052 20.0409 20.0096 19.9427 19.8211 19.6264 19.3506 19.0123 
19.191 19.6254 19.8767 19.9965 20.0341 20.0279 20.0036 19.9759 19.9523 19.935 19.9243 19.9191 19.9182 19.9205 19.9254 19.9322 19.9406 19.9504 19.9613 19.973 19.9853 19.998 20.0107 20.0231 20.035 20.046 20.0559 20.0644 20.0713 20.0764 20.0795 20.0806 20.0797 20.0769 20.0723 20.0663 20.0595 20.0525 20.0462 20.0413 20.0382 20.0364 20.0333 20.0236 19.9975 19.94 19.8304 19.6455 19.3678 19 
19.109 19.524 19.7752 19.9032 19.9509 19.9542 19.9379 19.9171 19.8994 19.888 19.8834 19.8847 19.8909 19.9011 19.9142 19.9296 19.9467 19.9651 19.9842 20.0036 20.0229 20.0415 20.0592 20.0754 20.0897 20.1019 20.1115 20.1184 20.1223 20.1232 20.121 20.1157 20.1076 20.0968 20.0837 20.0689 20.0532 20.0373 20.0224 20.0096 19.9997 19.9926 19.987 19.9785 19.9587 19.9134 19.8216 19.6567 19.3916 19.0123 
19.0489 19.4239 19.6605 19.788 19.8427 19.8562 19.8514 19.8424 19.8368 19.8375 19.8453 19.8595 19.8788 19.9022 19.9285 19.9568 19.9861 20.0157 20.0448 20.0728 20.099 20.1226 20.1433 20.1604 20.1736 20.1825 20.1869 20.1867 20.1819 20.1726 20.159 20.1414 20.1202 20.0961 20.0697 20.0419 20.0137 19.9862 19.9608 19.9389 19.9215 19.9094 19.9019 19.8961 19.885 19.8561 19.7894 19.6557 19.4198 19.0489 
19.0123 19.3267 19.5342 19.654 19.7145 19.7418 19.7551 19.7664 19.7818 19.8039 19.833 19.8681 19.9077 19.9505 19.995 20.0397 20.0835 20.1252 20.1637 20.1982 20.2278 20.2517 20.2694 20.2805 20.2847 20.2819 20.2721 20.2557 20.2329 20.2043 20.1707 20.1329 20.0917 20.0482 20.0037 19.9592 19.9163 19.8763 19.8408 19.8114 19.7894 19.7759 19.7708 19.7722 19.7751 19.7691 19.7359 19.6459 19.4554 19.109 
19 19.2388 19.4068 19.516 19.586 19.6355 19.678 19.7217 19.7706 19.8258 19.8865 19.9513 20.0182 20.0852 20.1504 20.2121 20.2686 20.3184 20.3604 20.3934 20.4168 20.4299 20.4323 20.4242 20.4056 20.377 20.3391 20.2929 20.2394 20.1801 20.1162 20.0495 19.9815 19.914 19.8486 19.7871 19.7312 19.6826 19.6428 19.6134 19.5957 19.5906 19.5982 19.6172 19.6441 19.6708 19.6819 19.6487 19.5183 19.191 
19.0123 19.1779 19.3061 19.4107 19.5018 19.5884 19.6763 19.7683 19.865 19.9652 20.0668 20.1675 20.2644 20.3552 20.4374 20.5088 20.5678 20.6128 20.6426 20.6566 20.6545 20.6362 20.6023 20.5535 20.4911 20.4166 20.3318 20.2389 20.1401 20.0378 19.9346 19.833 19.7354 19.6444 19.5622 19.4908 19.4321 19.3878 19.359 19.3469 19.3521 19.3747 19.4143 19.4694 19.5372 19.612 19.6827 19.7248 19.6782 19.2929 
19.0489 19.191 19.2929 19.4122 19.546 19.691 19.8436 20 20.1564 20.309 20.454 20.5878 20.7071 20.809 20.891 20.9511 20.9877 21 20.9877 20.9511 20.891 20.809 20.7071 20.5878 20.454 20.309 20.1564 20 19.8436 19.691 19.546 19.4122 19.2929 19.191 19.109 19.0489 19.0123 19 19.0123 19.0489 19.109 19.191 19.2929 19.4122 19.546 19.691 19.8436 20 20.1564 19.4122 
