# vtk DataFile Version 3.0
Temperature distribution on a 2D grid
ASCII

DATASET STRUCTURED_POINTS
DIMENSIONS 50 50 1
ORIGIN 0.0 0.0 0.0
SPACING 0.01 0.01 1.0

POINT_DATA 2500
SCALARS temperature double
LOOKUP_TABLE default
19.0591 20.9823 20.9995 20.9921 20.9603 20.9048 20.8271 20.729 20.6129 20.4818 20.3387 20.1874 20.0314 19.8747 19.721 19.5742 19.4379 19.3155 19.2098 19.1237 19.0591 19.0177 19.0005 19.0079 19.0397 19.0952 19.1729 19.271 19.3871 19.5182 19.6613 19.8126 19.9686 20.1253 20.279 20.4258 20.5621 20.6845 20.7902 20.8763 20.9409 20.9823 20.9995 20.9921 20.9603 20.9048 20.8271 20.729 20.6129 20.3387 
19.1237 20.0226 20.317 20.4274 20.4488 20.4203 20.361 20.2817 20.1895 20.0897 19.9863 19.8829 19.7824 19.6874 19.6003 19.5233 19.4582 19.4065 19.3694 19.348 19.3426 19.3534 19.3801 19.4221 19.4783 19.5473 19.6275 19.7169 19.8132 19.9142 20.0172 20.1198 20.2195 20.3138 20.4005 20.4773 20.5425 20.5944 20.6318 20.6534 20.6585 20.6462 20.6159 20.5673 20.5005 20.4176 20.3242 20.234 20.1744 20.1874 
19.2098 19.6415 19.9035 20.0439 20.1021 20.1069 20.0781 20.029 19.9688 19.904 19.839 19.7772 19.7209 19.6719 19.6313 19.6002 19.5792 19.5687 19.569 19.58 19.6013 19.6325 19.6727 19.7209 19.7761 19.8367 19.9014 19.9684 20.0363 20.1033 20.1677 20.228 20.2827 20.3305 20.3702 20.401 20.4221 20.433 20.4334 20.4229 20.401 20.3672 20.3203 20.2592 20.1833 20.0945 20.0009 19.9232 19.9055 20.0314 
19.3155 19.5043 19.6896 19.8229 19.9002 19.9323 19.9324 19.9123 19.8813 19.846 19.8111 19.7796 19.7535 19.734 19.7215 19.7164 19.7187 19.7282 19.7445 19.7673 19.7958 19.8293 19.867 19.908 19.9513 19.9958 20.0403 20.0839 20.1254 20.1638 20.1981 20.2276 20.2515 20.2693 20.2806 20.2852 20.2831 20.2744 20.2591 20.2372 20.2083 20.1713 20.1245 20.0654 19.9922 19.9054 19.8126 19.7368 19.7272 19.8747 
19.4379 19.4822 19.6001 19.7157 19.801 19.8519 19.8746 19.8775 19.8688 19.8549 19.8404 19.8282 19.8201 19.8168 19.8187 19.8257 19.8374 19.8535 19.8734 19.8965 19.9222 19.9498 19.9787 20.0081 20.0373 20.0655 20.0922 20.1166 20.138 20.1561 20.1703 20.1804 20.186 20.1872 20.1839 20.1764 20.1649 20.1498 20.1315 20.1097 20.084 20.0528 20.0135 19.9624 19.8957 19.8118 19.7163 19.6303 19.602 19.721 
19.5742 19.5193 19.5825 19.678 19.7641 19.8265 19.8646 19.8837 19.8904 19.8904 19.8882 19.8867 19.8876 19.8916 19.8989 19.9093 19.9226 19.9381 19.9553 19.9738 19.993 20.0124 20.0315 20.0498 20.0669 20.0823 20.0957 20.1067 20.1151 20.1206 20.1232 20.1227 20.1192 20.1129 20.1041 20.093 20.0801 20.0659 20.0506 20.0342 20.0157 19.9934 19.9637 19.9217 19.8618 19.7799 19.6782 19.5737 19.5106 19.5742 
19.721 19.5885 19.6045 19.6784 19.7602 19.8278 19.8754 19.9048 19.9211 19.9293 19.9337 19.9371 19.9414 19.9473 19.9551 19.9646 19.9756 19.9876 20.0001 20.0127 20.0252 20.037 20.0479 20.0577 20.066 20.0726 20.0775 20.0805 20.0815 20.0804 20.0773 20.0724 20.0657 20.0575 20.0481 20.0379 20.0273 20.0169 20.0069 19.997 19.9865 19.9729 19.9524 19.9189 19.8651 19.7842 19.6746 19.5482 19.4429 19.4379 
19.8747 19.6757 19.6478 19.6981 19.7712 19.839 19.8911 19.9264 19.9482 19.9609 19.9683 19.9734 19.9781 19.9833 19.9893 19.9962 20.0038 20.0116 20.0195 20.027 20.0339 20.0401 20.0452 20.0492 20.0521 20.0536 20.0538 20.0526 20.0502 20.0465 20.0416 20.0357 20.0289 20.0216 20.0139 20.0063 19.9992 19.9931 19.9882 19.9844 19.9806 19.9745 19.9618 19.9357 19.8874 19.8076 19.6906 19.5424 19.3937 19.3155 
20.0314 19.773 19.7024 19.727 19.7876 19.8516 19.9044 19.9424 19.9671 19.9819 19.9905 19.9958 19.9996 20.0032 20.0069 20.0111 20.0154 20.0197 20.0239 20.0276 20.0307 20.0332 20.0348 20.0355 20.0354 20.0344 20.0325 20.0298 20.0264 20.0223 20.0176 20.0125 20.0071 20.0015 19.9962 19.9914 19.9876 19.9851 19.9843 19.9851 19.9865 19.9863 19.98 19.9603 19.9174 19.8395 19.7171 19.5501 19.3606 19.2098 
20.1874 19.8757 19.7635 19.7604 19.8054 19.8623 19.9131 19.9516 19.9775 19.9934 20.0024 20.0072 20.01 20.012 20.0137 20.0156 20.0175 20.0193 20.0209 20.0222 20.0231 20.0234 20.0232 20.0224 20.021 20.0191 20.0168 20.014 20.0108 20.0074 20.0037 19.9999 19.9961 19.9925 19.9893 19.9867 19.9853 19.9854 19.9874 19.9913 19.9965 20.0007 19.9996 19.9859 19.9487 19.8744 19.7496 19.5681 19.3429 19.1237 
20.3387 19.9804 19.8283 19.7965 19.8236 19.8709 19.9178 19.9552 19.9813 19.9976 20.0067 20.0113 20.0133 20.0141 20.0144 20.0147 20.015 20.0152 20.0154 20.0154 20.0151 20.0144 20.0135 20.0122 20.0106 20.0087 20.0066 20.0044 20.002 19.9995 19.997 19.9945 19.9922 19.99 19.9883 19.9873 19.9874 19.9891 19.9927 19.9986 20.0062 20.0137 20.0171 20.0091 19.9782 19.9094 19.7858 19.5949 19.3404 19.0591 
20.4818 20.0847 19.8954 19.8348 19.8425 19.8786 19.9198 19.955 19.9806 19.9971 20.0064 20.0109 20.0126 20.0127 20.0123 20.0117 20.0111 20.0105 20.0099 20.0093 20.0085 20.0076 20.0066 20.0053 20.004 20.0025 20.001 19.9995 19.9979 19.9963 19.9948 19.9934 19.9921 19.9909 19.9902 19.99 19.9909 19.9932 19.9977 20.0045 20.0137 20.0238 20.031 20.0286 20.0048 19.9434 19.8245 19.6297 19.3531 19.0177 
20.6129 20.1862 19.9637 19.8751 19.8629 19.8865 19.9208 19.953 19.9777 19.9941 20.0038 20.0085 20.0101 20.0101 20.0093 20.0083 20.0073 20.0064 20.0056 20.0048 20.004 20.0032 20.0023 20.0014 20.0004 19.9995 19.9985 19.9976 19.9967 19.9958 19.995 19.9943 19.9936 19.993 19.9928 19.9929 19.994 19.9965 20.0011 20.0084 20.0185 20.0305 20.0413 20.0444 20.0284 19.9762 19.8653 19.6721 19.3809 19.0005 
20.729 20.2826 20.032 19.9172 19.8851 19.8955 19.9222 19.9506 19.9739 19.9902 20.0001 20.0053 20.0072 20.0073 20.0066 20.0055 20.0044 20.0035 20.0027 20.0019 20.0013 20.0007 20.0001 19.9995 19.9989 19.9984 19.9979 19.9974 19.997 19.9966 19.9962 19.9959 19.9955 19.9952 19.9951 19.9953 19.9963 19.9985 20.0029 20.0101 20.0207 20.0342 20.0481 20.0568 20.0491 20.0076 19.9079 19.7214 19.4234 19.0079 
20.8271 20.3719 20.0991 19.9608 19.9094 19.9064 19.9248 19.9489 19.9703 19.9863 19.9965 20.0021 20.0044 20.0049 20.0044 20.0035 20.0025 20.0017 20.0009 20.0004 19.9999 19.9995 19.9991 19.9988 19.9986 19.9983 19.9981 19.998 19.9979 19.9977 19.9976 19.9975 19.9973 19.997 19.9968 19.9969 19.9975 19.9993 20.0032 20.0101 20.0208 20.0355 20.0523 20.0662 20.0672 20.0377 19.9518 19.7769 19.4797 19.0397 
20.9048 20.4518 20.1635 20.0051 19.9357 19.9192 19.9291 19.9483 19.9675 19.9828 19.9932 19.9992 20.0021 20.003 20.0028 20.0022 20.0014 20.0007 20.0001 19.9997 19.9994 19.9991 19.999 19.9989 19.9988 19.9988 19.9988 19.9988 19.9988 19.9988 19.9988 19.9987 19.9985 19.9982 19.9979 19.9977 19.9979 19.9993 20.0026 20.0089 20.0195 20.0349 20.0542 20.0732 20.0828 20.0661 19.9963 19.8375 19.5487 19.0952 
20.9603 20.5206 20.2238 20.0491 19.9635 19.9341 19.9351 19.9491 19.9657 19.98 19.9904 19.9968 20.0002 20.0016 20.0018 20.0014 20.0008 20.0002 19.9998 19.9995 19.9993 19.9992 19.9992 19.9992 19.9992 19.9993 19.9994 19.9995 19.9996 19.9996 19.9996 19.9995 19.9993 19.999 19.9985 19.998 19.9978 19.9986 20.0012 20.0069 20.0172 20.033 20.0542 20.0779 20.096 20.0925 20.0406 19.9019 19.6286 19.1729 
20.9921 20.5766 20.2786 20.092 19.9923 19.9507 19.9429 19.9513 19.965 19.9781 19.9882 19.9949 19.9987 20.0005 20.0011 20.0009 20.0006 20.0001 19.9998 19.9996 19.9995 19.9994 19.9994 19.9995 19.9996 19.9997 19.9998 20 20.0001 20.0001 20.0001 20 19.9998 19.9993 19.9987 19.9979 19.9974 19.9976 19.9996 20.0045 20.0142 20.03 20.0528 20.0806 20.1067 20.1165 20.0839 19.9687 19.7177 19.271 
20.9995 20.6184 20.3266 20.1327 20.0213 19.9687 19.9523 19.955 19.9653 19.9768 19.9865 19.9933 19.9975 19.9997 20.0005 20.0007 20.0005 20.0002 19.9999 19.9997 19.9997 19.9997 19.9997 19.9998 19.9999 20 20.0001 20.0002 20.0003 20.0004 20.0004 20.0003 20 19.9995 19.9987 19.9978 19.9969 19.9966 19.9978 20.0019 20.0107 20.0263 20.0501 20.0813 20.1148 20.1377 20.1251 20.0362 19.8137 19.3871 
20.9823 20.645 20.3666 20.1702 20.0499 19.9875 19.9629 19.9598 19.9667 19.9764 19.9853 19.992 19.9964 19.9989 20.0001 20.0005 20.0004 20.0002 20 19.9999 19.9998 19.9998 19.9999 20 20.0001 20.0002 20.0003 20.0004 20.0005 20.0005 20.0005 20.0004 20.0001 19.9995 19.9987 19.9976 19.9964 19.9956 19.9961 19.9992 20.0071 20.022 20.0461 20.08 20.1201 20.1556 20.1632 20.1029 19.9143 19.5182 
20.9409 20.6557 20.3976 20.2035 20.0774 20.0066 19.9745 19.9658 19.9689 19.9765 19.9845 19.991 19.9955 19.9983 19.9997 20.0003 20.0004 20.0003 20.0001 20 20 20 20 20.0001 20.0002 20.0002 20.0003 20.0004 20.0005 20.0005 20.0005 20.0004 20.0001 19.9995 19.9987 19.9974 19.996 19.9948 19.9945 19.9967 20.0033 20.0172 20.0411 20.0768 20.1225 20.1697 20.1974 20.1671 20.0171 19.6613 
20.8763 20.6503 20.4188 20.2319 20.1029 20.0257 19.9868 19.9726 19.9719 19.9773 19.9842 19.9903 19.9948 19.9977 19.9993 20.0001 20.0003 20.0003 20.0002 20.0001 20 20 20.0001 20.0001 20.0002 20.0002 20.0003 20.0004 20.0004 20.0005 20.0005 20.0004 20.0001 19.9996 19.9987 19.9974 19.9957 19.9941 19.9931 19.9942 19.9995 20.0121 20.0352 20.0718 20.122 20.1796 20.2268 20.2272 20.1195 19.8126 
20.7902 20.6289 20.4297 20.2545 20.1259 20.0441 19.9994 19.9801 19.9757 19.9786 19.9842 19.9897 19.9941 19.9971 19.9989 19.9998 20.0002 20.0003 20.0002 20.0001 20.0001 20.0001 20.0001 20.0001 20.0001 20.0002 20.0003 20.0003 20.0004 20.0004 20.0004 20.0003 20.0001 19.9996 19.9988 19.9974 19.9956 19.9936 19.9919 19.992 19.9958 20.0067 20.0285 20.0651 20.1185 20.1852 20.2506 20.2818 20.2189 19.9686 
20.6845 20.592 20.4301 20.2709 20.1459 20.0614 20.0121 19.9881 19.98 19.9805 19.9846 19.9894 19.9936 19.9966 19.9985 19.9996 20 20.0002 20.0002 20.0001 20.0001 20.0001 20.0001 20.0001 20.0001 20.0002 20.0002 20.0003 20.0003 20.0004 20.0004 20.0003 20.0001 19.9997 19.9989 19.9975 19.9956 19.9933 19.991 19.99 19.9923 20.0012 20.021 20.0568 20.1121 20.1862 20.2683 20.3294 20.3129 20.1253 
20.5621 20.5405 20.4198 20.2806 20.1622 20.0773 20.0244 19.9963 19.9848 19.9828 19.9854 19.9894 19.9932 19.9961 19.9981 19.9993 19.9999 20.0001 20.0002 20.0001 20.0001 20.0001 20.0001 20.0001 20.0001 20.0001 20.0002 20.0002 20.0003 20.0003 20.0003 20.0003 20.0002 19.9998 19.9991 19.9978 19.9958 19.9932 19.9903 19.9882 19.9889 19.9956 20.0131 20.0471 20.103 20.1827 20.2793 20.3689 20.3993 20.279 
20.4258 20.4757 20.3992 20.2834 20.1745 20.0912 20.0361 20.0047 19.99 19.9855 19.9865 19.9895 19.9929 19.9957 19.9978 19.999 19.9997 20 20.0001 20.0001 20.0001 20.0001 20.0001 20.0001 20.0001 20.0001 20.0001 20.0002 20.0002 20.0003 20.0003 20.0003 20.0003 20 19.9993 19.998 19.996 19.9932 19.9898 19.9867 19.9858 19.9902 20.0049 20.0363 20.0913 20.1747 20.2835 20.3993 20.4758 20.4258 
20.279 20.3992 20.3688 20.2792 20.1825 20.1028 20.0469 20.0129 19.9954 19.9886 19.9879 19.99 19.9929 19.9955 19.9975 19.9988 19.9996 20 20.0001 20.0001 20.0001 20.0001 20.0001 20.0001 20.0001 20.0001 20.0001 20.0001 20.0002 20.0002 20.0003 20.0004 20.0003 20.0001 19.9995 19.9984 19.9964 19.9934 19.9896 19.9856 19.983 19.985 19.9965 20.0246 20.0774 20.1623 20.2807 20.4199 20.5405 20.5621 
20.1253 20.3129 20.3293 20.2681 20.1861 20.112 20.0566 20.0208 20.0009 19.992 19.9897 19.9907 19.993 19.9953 19.9973 19.9986 19.9994 19.9999 20.0001 20.0002 20.0002 20.0002 20.0001 20.0001 20.0001 20.0001 20.0001 20.0001 20.0001 20.0002 20.0003 20.0004 20.0004 20.0002 19.9998 19.9987 19.9968 19.9938 19.9896 19.9848 19.9807 19.9802 19.9882 20.0122 20.0616 20.146 20.271 20.4301 20.592 20.6845 
19.9686 20.2188 20.2817 20.2505 20.1851 20.1184 20.0649 20.0282 20.0064 19.9956 19.9917 19.9917 19.9933 19.9953 19.9971 19.9985 19.9993 19.9999 20.0001 20.0002 20.0002 20.0002 20.0002 20.0001 20.0001 20.0001 20.0001 20.0001 20.0001 20.0001 20.0002 20.0003 20.0004 20.0003 20 19.9991 19.9973 19.9943 19.9899 19.9844 19.9788 19.9759 19.9803 19.9996 20.0443 20.1261 20.2546 20.4298 20.6289 20.7902 
19.8126 20.1194 20.2272 20.2267 20.1795 20.1219 20.0717 20.035 20.0119 19.9993 19.994 19.9929 19.9938 19.9955 19.9971 19.9984 19.9993 19.9998 20.0001 20.0002 20.0003 20.0002 20.0002 20.0001 20.0001 20.0001 20 20 20 20 20.0001 20.0002 20.0004 20.0004 20.0002 19.9994 19.9978 19.9949 19.9904 19.9843 19.9775 19.9721 19.9727 19.987 20.0258 20.103 20.232 20.4189 20.6504 20.8763 
19.6613 20.0171 20.1671 20.1974 20.1696 20.1225 20.0767 20.041 20.0171 20.0032 19.9965 19.9943 19.9945 19.9958 19.9972 19.9984 19.9993 19.9998 20.0001 20.0002 20.0003 20.0002 20.0002 20.0001 20 20 19.9999 19.9999 19.9998 19.9999 20 20.0001 20.0003 20.0004 20.0003 19.9998 19.9984 19.9957 19.9912 19.9847 19.9767 19.9691 19.966 19.9747 20.0068 20.0775 20.2037 20.3977 20.6558 20.9409 
19.5182 19.9143 20.1029 20.1632 20.1556 20.1201 20.08 20.0461 20.0219 20.007 19.9991 19.9959 19.9954 19.9962 19.9973 19.9984 19.9992 19.9997 20 20.0001 20.0002 20.0001 20 19.9999 19.9998 19.9998 19.9997 19.9996 19.9996 19.9997 19.9998 19.9999 20.0002 20.0004 20.0005 20.0002 19.9991 19.9966 19.9922 19.9855 19.9766 19.9669 19.9601 19.9631 19.9877 20.0501 20.1704 20.3667 20.6451 20.9823 
19.3871 19.8137 20.0363 20.1251 20.1378 20.1149 20.0813 20.0501 20.0263 20.0107 20.0018 19.9977 19.9964 19.9966 19.9975 19.9984 19.9991 19.9995 19.9998 19.9999 19.9999 19.9998 19.9997 19.9996 19.9995 19.9994 19.9994 19.9993 19.9993 19.9994 19.9995 19.9998 20.0001 20.0005 20.0007 20.0007 19.9999 19.9977 19.9936 19.9868 19.9772 19.9657 19.9553 19.9526 19.969 20.0216 20.1329 20.3267 20.6185 20.9995 
19.271 19.7177 19.9688 20.084 20.1167 20.1069 20.0807 20.0529 20.0301 20.0141 20.0044 19.9994 19.9974 19.9971 19.9975 19.9982 19.9987 19.9991 19.9993 19.9994 19.9994 19.9993 19.9992 19.9991 19.999 19.999 19.9989 19.999 19.999 19.9991 19.9993 19.9997 20.0001 20.0006 20.0011 20.0013 20.0009 19.9992 19.9954 19.9887 19.9786 19.9655 19.9518 19.9434 19.9511 19.9926 20.0923 20.2788 20.5767 20.9921 
19.1729 19.6287 19.902 20.0408 20.0926 20.0961 20.078 20.0543 20.033 20.017 20.0067 20.0009 19.9981 19.9972 19.9972 19.9976 19.998 19.9983 19.9985 19.9986 19.9986 19.9985 19.9985 19.9984 19.9984 19.9984 19.9985 19.9986 19.9988 19.999 19.9994 19.9998 20.0004 20.0011 20.0018 20.0023 20.0023 20.001 19.9976 19.9912 19.9809 19.9665 19.9498 19.9358 19.9347 19.9639 20.0495 20.224 20.5207 20.9603 
19.0952 19.5487 19.8375 19.9963 20.066 20.0827 20.0731 20.0539 20.0346 20.019 20.0083 20.0018 19.9983 19.9969 19.9965 19.9966 19.9968 19.9971 19.9972 19.9973 19.9974 19.9975 19.9975 19.9976 19.9978 19.998 19.9983 19.9986 19.9989 19.9994 19.9999 20.0005 20.0013 20.0021 20.0031 20.0039 20.0042 20.0033 20.0004 19.9944 19.9839 19.9686 19.9492 19.9298 19.9198 19.9362 20.0054 20.1636 20.4519 20.9048 
19.0397 19.4796 19.7766 19.9514 20.0372 20.0666 20.0655 20.0514 20.0344 20.0197 20.0088 20.0017 19.9977 19.9957 19.9949 19.9948 19.995 19.9952 19.9955 19.9958 19.996 19.9963 19.9967 19.9971 19.9975 19.998 19.9986 19.9992 19.9998 20.0005 20.0012 20.002 20.003 20.004 20.0051 20.0061 20.0067 20.0062 20.0038 19.998 19.9877 19.9715 19.9498 19.9255 19.9068 19.9097 19.9609 20.0991 20.3719 20.8271 
19.0079 19.423 19.7206 19.9068 20.0062 20.0474 20.0549 20.046 20.0319 20.0182 20.0075 20.0002 19.9957 19.9934 19.9924 19.9922 19.9925 19.993 19.9935 19.9941 19.9948 19.9956 19.9964 19.9972 19.9982 19.9991 20.0001 20.0011 20.0021 20.003 20.0039 20.0049 20.0059 20.007 20.0081 20.0091 20.0098 20.0095 20.0073 20.0019 19.9916 19.9749 19.9512 19.9225 19.8954 19.8848 19.9169 20.0317 20.2824 20.729 
19.0005 19.38 19.6704 19.8629 19.9732 20.0249 20.0405 20.0372 20.0262 20.0142 20.004 19.9968 19.9923 19.9899 19.989 19.9891 19.9898 19.9908 19.9919 19.9932 19.9946 19.9961 19.9976 19.9991 20.0007 20.0022 20.0037 20.005 20.0063 20.0074 20.0084 20.0094 20.0102 20.0111 20.0119 20.0127 20.0131 20.0127 20.0105 20.0052 19.995 19.9778 19.9525 19.9199 19.8851 19.8614 19.8737 19.9626 20.1856 20.6129 
19.0177 19.3515 19.6266 19.82 19.9379 19.9986 20.0219 20.0242 20.0169 20.0069 19.998 19.9915 19.9875 19.9857 19.9855 19.9863 19.9878 19.9898 19.992 19.9944 19.9968 19.9993 20.0017 20.0041 20.0063 20.0084 20.0103 20.0119 20.0132 20.0142 20.0149 20.0154 20.0157 20.0158 20.0159 20.0159 20.0155 20.0145 20.012 20.0065 19.9961 19.9787 19.9522 19.9164 19.8749 19.8389 19.8315 19.893 20.0835 20.4818 
19.0591 19.3377 19.5897 19.7785 19.9006 19.9684 19.9987 20.0068 20.0037 19.9968 19.99 19.9851 19.9825 19.9821 19.9833 19.9856 19.9887 19.9922 19.9959 19.9997 20.0035 20.0071 20.0105 20.0137 20.0165 20.0188 20.0207 20.0221 20.0229 20.0232 20.023 20.0223 20.0212 20.0199 20.0184 20.0169 20.0151 20.0129 20.0094 20.0034 19.9929 19.9753 19.9482 19.9102 19.8633 19.8165 19.7906 19.8241 19.9782 20.3387 
19.1237 19.339 19.5606 19.7392 19.8618 19.9348 19.9717 19.9858 19.9879 19.9851 19.9818 19.9798 19.9799 19.982 19.9856 19.9903 19.9956 20.0012 20.0069 20.0123 20.0174 20.0221 20.0262 20.0296 20.0322 20.0341 20.0351 20.0352 20.0345 20.0329 20.0306 20.0276 20.0241 20.0203 20.0164 20.0124 20.0086 20.0045 19.9997 19.993 19.9823 19.9651 19.9383 19.8996 19.8493 19.7938 19.7511 19.7571 19.8724 20.1874 
19.2098 19.3556 19.5405 19.7037 19.8236 19.9003 19.9434 19.9643 19.9728 19.9759 19.9776 19.9802 19.9844 19.9903 19.9973 20.0052 20.0133 20.0212 20.0287 20.0355 20.0414 20.0463 20.05 20.0524 20.0535 20.0533 20.0518 20.049 20.045 20.0398 20.0338 20.027 20.0197 20.0122 20.0048 19.9977 19.9911 19.985 19.9788 19.9716 19.9614 19.9455 19.9206 19.8833 19.8323 19.7714 19.7147 19.6945 19.7692 20.0314 
19.3155 19.3884 19.5322 19.6764 19.791 19.8703 19.9199 19.9488 19.9654 19.9762 19.985 19.9939 20.0037 20.0144 20.0256 20.0368 20.0474 20.0571 20.0655 20.0722 20.0772 20.0802 20.0813 20.0803 20.0773 20.0724 20.0657 20.0574 20.0477 20.0368 20.025 20.0127 20.0003 19.9881 19.9765 19.9661 19.9569 19.9492 19.9426 19.9361 19.9281 19.9157 19.8953 19.8627 19.8148 19.7525 19.6856 19.6411 19.6733 19.8747 
19.4379 19.4397 19.5417 19.6653 19.7737 19.8556 19.9124 19.9508 19.9775 19.9979 20.0154 20.032 20.0481 20.0638 20.0786 20.092 20.1035 20.1126 20.119 20.1225 20.123 20.1205 20.1149 20.1065 20.0955 20.0821 20.0667 20.0496 20.0313 20.0122 19.9929 19.9738 19.9555 19.9385 19.9234 19.9107 19.9007 19.8935 19.889 19.8864 19.8839 19.8787 19.867 19.8438 19.8042 19.7459 19.6735 19.6067 19.5925 19.721 
19.5742 19.5147 19.5798 19.6852 19.7885 19.8738 19.9393 19.9886 20.0267 20.0578 20.0845 20.1083 20.1296 20.1482 20.1636 20.1755 20.1834 20.1869 20.1858 20.1803 20.1702 20.156 20.1379 20.1164 20.092 20.0654 20.0371 20.0079 19.9785 19.9497 19.9221 19.8965 19.8735 19.8539 19.8382 19.8269 19.8204 19.8187 19.8217 19.8284 19.8372 19.8453 19.8484 19.8411 19.8168 19.7695 19.6973 19.6097 19.5413 19.5742 
19.721 19.6238 19.6658 19.7598 19.8613 19.9518 20.0265 20.0869 20.1357 20.1759 20.2092 20.2364 20.2578 20.2731 20.2822 20.2846 20.2802 20.2691 20.2514 20.2275 20.198 20.1637 20.1253 20.0838 20.0402 19.9956 19.9512 19.9079 19.8669 19.8292 19.7957 19.7673 19.7447 19.7285 19.7193 19.7174 19.7229 19.7356 19.755 19.78 19.8088 19.8384 19.8646 19.8813 19.8805 19.853 19.7892 19.6836 19.5476 19.4379 
19.8747 19.7871 19.8309 19.9251 20.029 20.1248 20.2068 20.2743 20.3285 20.3707 20.4019 20.4225 20.4326 20.4322 20.4215 20.4006 20.3699 20.3303 20.2826 20.2279 20.1676 20.1032 20.0362 19.9684 19.9013 19.8366 19.776 19.7208 19.6726 19.6324 19.6012 19.58 19.5691 19.5689 19.5796 19.6008 19.6322 19.673 19.722 19.7776 19.8375 19.8987 19.9567 20.0056 20.0372 20.0397 19.9967 19.8839 19.6693 19.3155 
20.0314 20.0445 20.1236 20.2296 20.3365 20.4323 20.5124 20.5751 20.6202 20.6481 20.659 20.6532 20.6314 20.594 20.5422 20.4771 20.4003 20.3137 20.2195 20.1198 20.0172 19.9141 19.8132 19.7169 19.6275 19.5473 19.4782 19.422 19.3801 19.3533 19.3426 19.348 19.3695 19.4066 19.4584 19.5237 19.6008 19.688 19.7829 19.8831 19.9856 20.0869 20.183 20.2688 20.3375 20.3791 20.3761 20.2924 20.0391 19.2098 
20.1874 20.4818 20.6129 20.729 20.8271 20.9048 20.9603 20.9921 20.9995 20.9823 20.9409 20.8763 20.7902 20.6845 20.5621 20.4258 20.279 20.1253 19.9686 19.8126 19.6613 19.5182 19.3871 19.271 19.1729 19.0952 19.0397 19.0079 19.0005 19.0177 19.0591 19.1237 19.2098 19.3155 19.4379 19.5742 19.721 19.8747 20.0314 20.1874 20.3387 20.4818 20.6129 20.729 20.8271 20.9048 20.9603 20.9921 20.9995 19.1237 
