# vtk DataFile Version 3.0
Temperature distribution on a 2D grid
ASCII

DATASET STRUCTURED_POINTS
DIMENSIONS 50 50 1
ORIGIN 0.0 0.0 0.0
SPACING 0.01 0.01 1.0

POINT_DATA 2500
SCALARS temperature double
LOOKUP_TABLE default
20.1874 19.9686 20.1253 20.279 20.4258 20.5621 20.6845 20.7902 20.8763 20.9409 20.9823 20.9995 20.9921 20.9603 20.9048 20.8271 20.729 20.6129 20.4818 20.3387 20.1874 20.0314 19.8747 19.721 19.5742 19.4379 19.3155 19.2098 19.1237 19.0591 19.0177 19.0005 19.0079 19.0397 19.0952 19.1729 19.271 19.3871 19.5182 19.6613 19.8126 19.9686 20.1253 20.279 20.4258 20.5621 20.6845 20.7902 20.8763 20.9823 
20.3387 20.1153 20.0998 20.1386 20.1888 20.2376 20.2812 20.3181 20.3471 20.3675 20.3789 20.381 20.3737 20.3572 20.3319 20.2985 20.2576 20.2105 20.1581 20.1019 20.0431 19.9833 19.9239 19.8664 19.8122 19.7625 19.7188 19.6819 19.6529 19.6325 19.6211 19.619 19.6263 19.6428 19.6681 19.7015 19.7424 19.7895 19.8419 19.8981 19.9569 20.0167 20.0761 20.1337 20.1884 20.2404 20.2961 20.3837 20.5825 20.9995 
20.4818 20.1663 20.0658 20.0498 20.0576 20.0698 20.0815 20.0913 20.0989 20.1041 20.1068 20.1068 20.1041 20.099 20.0913 20.0815 20.0696 20.056 20.041 20.025 20.0084 19.9916 19.975 19.959 19.9441 19.9305 19.9186 19.9087 19.9011 19.8959 19.8932 19.8932 19.8959 19.901 19.9087 19.9185 19.9304 19.944 19.959 19.975 19.9916 20.0084 20.025 20.0411 20.0567 20.0737 20.1024 20.1837 20.4311 20.9921 
20.6129 20.2124 20.062 20.0222 20.0156 20.0167 20.019 20.0211 20.0228 20.0239 20.0244 20.0244 20.0237 20.0224 20.0206 20.0183 20.0155 20.0124 20.0089 20.0053 20.0015 19.9976 19.9938 19.9902 19.9868 19.9838 19.9811 19.9789 19.9772 19.9761 19.9756 19.9756 19.9763 19.9776 19.9794 19.9817 19.9845 19.9876 19.9911 19.9947 19.9985 20.0024 20.0062 20.0099 20.0139 20.0205 20.0407 20.1172 20.3698 20.9603 
20.729 20.2576 20.0707 20.0175 20.0057 20.0038 20.0039 20.0042 20.0045 20.0047 20.0048 20.0048 20.0047 20.0044 20.004 20.0036 20.003 20.0024 20.0017 20.001 20.0002 19.9995 19.9987 19.998 19.9973 19.9967 19.9962 19.9958 19.9955 19.9953 19.9952 19.9952 19.9953 19.9956 19.996 19.9964 19.997 19.9976 19.9983 19.999 19.9998 20.0005 20.0013 20.0021 20.0034 20.0073 20.0242 20.0948 20.3338 20.9048 
20.8271 20.2978 20.0815 20.0186 20.004 20.0012 20.0008 20.0008 20.0008 20.0008 20.0009 20.0009 20.0008 20.0008 20.0007 20.0006 20.0005 20.0004 20.0003 20.0002 20 19.9999 19.9998 19.9996 19.9995 19.9994 19.9993 19.9993 19.9992 19.9992 19.9991 19.9991 19.9992 19.9992 19.9993 19.9994 19.9995 19.9996 19.9997 19.9998 20 20.0001 20.0002 20.0005 20.0011 20.0041 20.0189 20.0819 20.2982 20.8271 
20.9048 20.3311 20.0911 20.0206 20.0041 20.0008 20.0002 20.0001 20.0001 20.0001 20.0001 20.0001 20.0001 20.0001 20.0001 20.0001 20.0001 20.0001 20 20 20 20 20 19.9999 19.9999 19.9999 19.9999 19.9999 19.9999 19.9999 19.9999 19.9999 19.9999 19.9999 19.9999 19.9999 19.9999 19.9999 20 20 20 20 20.0001 20.0001 20.0006 20.0031 20.0156 20.0695 20.2571 20.729 
20.9603 20.3564 20.0987 20.0224 20.0044 20.0008 20.0001 20 20 20 20 20 20 20 20 20 20 20 20 20 20 20 20 20 20 20 20 20 20 20 20 20 20 20 20 20 20 20 20 20 20 20 20 20.0001 20.0004 20.0024 20.0124 20.0559 20.21 20.6129 
20.9921 20.3728 20.1039 20.0236 20.0047 20.0008 20.0001 20 20 20 20 20 20 20 20 20 20 20 20 20 20 20 20 20 20 20 20 20 20 20 20 20 20 20 20 20 20 20 20 20 20 20 20 20 20.0003 20.0017 20.0089 20.0409 20.1577 20.4818 
20.9995 20.3801 20.1065 20.0243 20.0048 20.0008 20.0001 20 20 20 20 20 20 20 20 20 20 20 20 20 20 20 20 20 20 20 20 20 20 20 20 20 20 20 20 20 20 20 20 20 20 20 20 20 20.0002 20.001 20.0052 20.025 20.1016 20.3387 
20.9823 20.378 20.1065 20.0244 20.0048 20.0009 20.0001 20 20 20 20 20 20 20 20 20 20 20 20 20 20 20 20 20 20 20 20 20 20 20 20 20 20 20 20 20 20 20 20 20 20 20 20 20 20 20.0002 20.0015 20.0084 20.043 20.1874 
20.9409 20.3666 20.1039 20.0238 20.0047 20.0008 20.0001 20 20 20 20 20 20 20 20 20 20 20 20 20 20 20 20 20 20 20 20 20 20 20 20 20 20 20 20 20 20 20 20 20 20 20 20 20 19.9999 19.9995 19.9976 19.9916 19.9834 20.0314 
20.8763 20.3462 20.0987 20.0227 20.0045 20.0008 20.0001 20 20 20 20 20 20 20 20 20 20 20 20 20 20 20 20 20 20 20 20 20 20 20 20 20 20 20 20 20 20 20 20 20 20 20 20 20 19.9998 19.9987 19.9939 19.9751 19.9241 19.8747 
20.7902 20.3173 20.0911 20.0211 20.0042 20.0007 20.0001 20 20 20 20 20 20 20 20 20 20 20 20 20 20 20 20 20 20 20 20 20 20 20 20 20 20 20 20 20 20 20 20 20 20 20 20 19.9999 19.9996 19.998 19.9902 19.9591 19.8667 19.721 
20.6845 20.2805 20.0812 20.0189 20.0038 20.0007 20.0001 20 20 20 20 20 20 20 20 20 20 20 20 20 20 20 20 20 20 20 20 20 20 20 20 20 20 20 20 20 20 20 20 20 20 20 20 19.9999 19.9995 19.9974 19.9868 19.9442 19.8126 19.5742 
20.5621 20.2369 20.0694 20.0162 20.0032 20.0006 20.0001 20 20 20 20 20 20 20 20 20 20 20 20 20 20 20 20 20 20 20 20 20 20 20 20 20 20 20 20 20 20 20 20 20 20 20 20 19.9999 19.9994 19.9968 19.9838 19.9306 19.7631 19.4379 
20.4258 20.1874 20.0558 20.0132 20.0026 20.0005 20.0001 20 20 20 20 20 20 20 20 20 20 20 20 20 20 20 20 20 20 20 20 20 20 20 20 20 20 20 20 20 20 20 20 20 20 20 20 19.9999 19.9993 19.9962 19.9811 19.9188 19.7195 19.3155 
20.279 20.1333 20.0409 20.0098 20.002 20.0004 20.0001 20 20 20 20 20 20 20 20 20 20 20 20 20 20 20 20 20 20 20 20 20 20 20 20 20 20 20 20 20 20 20 20 20 20 20 20 19.9999 19.9993 19.9958 19.9789 19.9089 19.6827 19.2098 
20.1253 20.0759 20.0249 20.0061 20.0013 20.0002 20 20 20 20 20 20 20 20 20 20 20 20 20 20 20 20 20 20 20 20 20 20 20 20 20 20 20 20 20 20 20 20 20 20 20 20 20 19.9999 19.9992 19.9955 19.9773 19.9013 19.6538 19.1237 
19.9686 20.0166 20.0084 20.0024 20.0005 20.0001 20 20 20 20 20 20 20 20 20 20 20 20 20 20 20 20 20 20 20 20 20 20 20 20 20 20 20 20 20 20 20 20 20 20 20 20 20 19.9999 19.9992 19.9953 19.9762 19.8961 19.6334 19.0591 
19.8126 19.957 19.9916 19.9985 19.9998 20 20 20 20 20 20 20 20 20 20 20 20 20 20 20 20 20 20 20 20 20 20 20 20 20 20 20 20 20 20 20 20 20 20 20 20 20 20 19.9999 19.9991 19.9952 19.9756 19.8935 19.622 19.0177 
19.6613 19.8984 19.975 19.9948 19.999 19.9998 20 20 20 20 20 20 20 20 20 20 20 20 20 20 20 20 20 20 20 20 20 20 20 20 20 20 20 20 20 20 20 20 20 20 20 20 20 19.9999 19.9992 19.9952 19.9757 19.8935 19.6199 19.0005 
19.5182 19.8423 19.9591 19.9911 19.9983 19.9997 20 20 20 20 20 20 20 20 20 20 20 20 20 20 20 20 20 20 20 20 20 20 20 20 20 20 20 20 20 20 20 20 20 20 20 20 20 19.9999 19.9992 19.9953 19.9764 19.8961 19.6272 19.0079 
19.3871 19.79 19.9442 19.9876 19.9976 19.9996 19.9999 20 20 20 20 20 20 20 20 20 20 20 20 20 20 20 20 20 20 20 20 20 20 20 20 20 20 20 20 20 20 20 20 20 20 20 20 19.9999 19.9992 19.9956 19.9776 19.9013 19.6436 19.0397 
19.271 19.743 19.9306 19.9845 19.997 19.9995 19.9999 20 20 20 20 20 20 20 20 20 20 20 20 20 20 20 20 20 20 20 20 20 20 20 20 20 20 20 20 20 20 20 20 20 20 20 20 19.9999 19.9993 19.996 19.9794 19.9089 19.6689 19.0952 
19.1729 19.7023 19.9187 19.9817 19.9964 19.9994 19.9999 20 20 20 20 20 20 20 20 20 20 20 20 20 20 20 20 20 20 20 20 20 20 20 20 20 20 20 20 20 20 20 20 20 20 20 20 19.9999 19.9994 19.9964 19.9817 19.9187 19.7023 19.1729 
19.0952 19.6689 19.9089 19.9794 19.996 19.9993 19.9999 20 20 20 20 20 20 20 20 20 20 20 20 20 20 20 20 20 20 20 20 20 20 20 20 20 20 20 20 20 20 20 20 20 20 20 20 19.9999 19.9995 19.997 19.9845 19.9306 19.743 19.271 
19.0397 19.6436 19.9013 19.9776 19.9956 19.9992 19.9999 20 20 20 20 20 20 20 20 20 20 20 20 20 20 20 20 20 20 20 20 20 20 20 20 20 20 20 20 20 20 20 20 20 20 20 20 19.9999 19.9996 19.9976 19.9876 19.9442 19.79 19.3871 
19.0079 19.6272 19.8961 19.9764 19.9953 19.9992 19.9999 20 20 20 20 20 20 20 20 20 20 20 20 20 20 20 20 20 20 20 20 20 20 20 20 20 20 20 20 20 20 20 20 20 20 20 20 20 19.9997 19.9983 19.9911 19.9591 19.8423 19.5182 
19.0005 19.6199 19.8935 19.9757 19.9952 19.9992 19.9999 20 20 20 20 20 20 20 20 20 20 20 20 20 20 20 20 20 20 20 20 20 20 20 20 20 20 20 20 20 20 20 20 20 20 20 20 20 19.9998 19.999 19.9948 19.975 19.8984 19.6613 
19.0177 19.622 19.8935 19.9756 19.9952 19.9991 19.9999 20 20 20 20 20 20 20 20 20 20 20 20 20 20 20 20 20 20 20 20 20 20 20 20 20 20 20 20 20 20 20 20 20 20 20 20 20 20 19.9998 19.9985 19.9916 19.957 19.8126 
19.0591 19.6334 19.8961 19.9762 19.9953 19.9992 19.9999 20 20 20 20 20 20 20 20 20 20 20 20 20 20 20 20 20 20 20 20 20 20 20 20 20 20 20 20 20 20 20 20 20 20 20 20 20 20.0001 20.0005 20.0024 20.0084 20.0166 19.9686 
19.1237 19.6538 19.9013 19.9773 19.9955 19.9992 19.9999 20 20 20 20 20 20 20 20 20 20 20 20 20 20 20 20 20 20 20 20 20 20 20 20 20 20 20 20 20 20 20 20 20 20 20 20 20 20.0002 20.0013 20.0061 20.0249 20.0759 20.1253 
19.2098 19.6827 19.9089 19.9789 19.9958 19.9993 19.9999 20 20 20 20 20 20 20 20 20 20 20 20 20 20 20 20 20 20 20 20 20 20 20 20 20 20 20 20 20 20 20 20 20 20 20 20 20.0001 20.0004 20.002 20.0098 20.0409 20.1333 20.279 
19.3155 19.7195 19.9188 19.9811 19.9962 19.9993 19.9999 20 20 20 20 20 20 20 20 20 20 20 20 20 20 20 20 20 20 20 20 20 20 20 20 20 20 20 20 20 20 20 20 20 20 20 20 20.0001 20.0005 20.0026 20.0132 20.0558 20.1874 20.4258 
19.4379 19.7631 19.9306 19.9838 19.9968 19.9994 19.9999 20 20 20 20 20 20 20 20 20 20 20 20 20 20 20 20 20 20 20 20 20 20 20 20 20 20 20 20 20 20 20 20 20 20 20 20 20.0001 20.0006 20.0032 20.0162 20.0694 20.2369 20.5621 
19.5742 19.8126 19.9442 19.9868 19.9974 19.9995 19.9999 20 20 20 20 20 20 20 20 20 20 20 20 20 20 20 20 20 20 20 20 20 20 20 20 20 20 20 20 20 20 20 20 20 20 20 20 20.0001 20.0007 20.0038 20.0189 20.0812 20.2805 20.6845 
19.721 19.8667 19.9591 19.9902 19.998 19.9996 19.9999 20 20 20 20 20 20 20 20 20 20 20 20 20 20 20 20 20 20 20 20 20 20 20 20 20 20 20 20 20 20 20 20 20 20 20 20 20.0001 20.0007 20.0042 20.0211 20.0911 20.3173 20.7902 
19.8747 19.9241 19.9751 19.9939 19.9987 19.9998 20 20 20 20 20 20 20 20 20 20 20 20 20 20 20 20 20 20 20 20 20 20 20 20 20 20 20 20 20 20 20 20 20 20 20 20 20 20.0001 20.0008 20.0045 20.0227 20.0987 20.3462 20.8763 
20.0314 19.9834 19.9916 19.9976 19.9995 19.9999 20 20 20 20 20 20 20 20 20 20 20 20 20 20 20 20 20 20 20 20 20 20 20 20 20 20 20 20 20 20 20 20 20 20 20 20 20 20.0001 20.0008 20.0047 20.0238 20.1039 20.3666 20.9409 
20.1874 20.043 20.0084 20.0015 20.0002 20 20 20 20 20 20 20 20 20 20 20 20 20 20 20 20 20 20 20 20 20 20 20 20 20 20 20 20 20 20 20 20 20 20 20 20 20 20 20.0001 20.0009 20.0048 20.0244 20.1065 20.378 20.9823 
20.3387 20.1016 20.025 20.0053 20.001 20.0002 20 20 20 20 20 20 20 20 20 20 20 20 20 20 20 20 20 20 20 20 20 20 20 20 20 20 20 20 20 20 20 20 20 20 20 20 20 20.0001 20.0009 20.0048 20.0243 20.1065 20.3801 20.9995 
20.4818 20.1578 20.0409 20.0089 20.0017 20.0003 20.0001 20 20 20 20 20 20 20 20 20 20 20 20 20 20 20 20 20 20 20 20 20 20 20 20 20 20 20 20 20 20 20 20 20 20 20 20 20.0002 20.0008 20.0047 20.0236 20.1039 20.3728 20.9921 
20.6129 20.21 20.056 20.0125 20.0025 20.0005 20.0001 20.0001 20 20 20 20 20 19.9999 19.9999 19.9999 19.9999 19.9999 19.9999 19.9999 19.9999 19.9999 19.9999 19.9999 19.9999 19.9999 19.9999 19.9999 20 20 20 20 20 20.0001 20.0001 20.0001 20.0001 20.0001 20.0001 20.0001 20.0001 20.0001 20.0002 20.0002 20.0009 20.0045 20.0225 20.0988 20.3564 20.9603 
20.729 20.2575 20.0701 20.0162 20.0037 20.0011 20.0006 20.0004 20.0002 20.0001 20 19.9998 19.9997 19.9996 19.9995 19.9994 19.9993 19.9992 19.9992 19.9991 19.9991 19.9992 19.9992 19.9993 19.9993 19.9994 19.9995 19.9996 19.9998 19.9999 20 20.0002 20.0003 20.0004 20.0005 20.0006 20.0007 20.0008 20.0008 20.0009 20.0009 20.0008 20.0008 20.0009 20.0014 20.0046 20.021 20.0914 20.3313 20.9048 
20.8271 20.3006 20.0852 20.0223 20.0073 20.0039 20.0028 20.002 20.0013 20.0005 19.9998 19.999 19.9983 19.9976 19.997 19.9964 19.996 19.9956 19.9953 19.9952 19.9952 19.9953 19.9955 19.9958 19.9962 19.9967 19.9973 19.998 19.9987 19.9995 20.0002 20.001 20.0017 20.0024 20.003 20.0036 20.004 20.0044 20.0047 20.0048 20.0048 20.0047 20.0045 20.0043 20.0044 20.0068 20.0209 20.0832 20.2987 20.8271 
20.9048 20.3456 20.1112 20.0411 20.0228 20.0169 20.0133 20.0098 20.0062 20.0024 19.9985 19.9947 19.9911 19.9876 19.9845 19.9817 19.9794 19.9776 19.9763 19.9756 19.9756 19.9761 19.9772 19.9789 19.9811 19.9838 19.9868 19.9902 19.9938 19.9976 20.0015 20.0053 20.0089 20.0124 20.0155 20.0183 20.0206 20.0224 20.0237 20.0244 20.0244 20.0239 20.0228 20.0212 20.0194 20.0192 20.0286 20.0788 20.2618 20.729 
20.9603 20.4193 20.1861 20.111 20.0853 20.0702 20.0561 20.041 20.025 20.0084 19.9916 19.975 19.959 19.944 19.9304 19.9185 19.9087 19.901 19.8959 19.8932 19.8932 19.8959 19.9011 19.9087 19.9186 19.9305 19.9441 19.959 19.975 19.9916 20.0084 20.025 20.041 20.056 20.0696 20.0815 20.0913 20.099 20.1041 20.1068 20.1068 20.1041 20.0989 20.0914 20.0818 20.0718 20.0679 20.0949 20.2287 20.6129 
20.9921 20.5942 20.4099 20.3323 20.284 20.2379 20.1879 20.1336 20.0761 20.0167 19.9569 19.8981 19.8419 19.7895 19.7424 19.7015 19.6681 19.6428 19.6263 19.619 19.6211 19.6325 19.6529 19.6819 19.7188 19.7625 19.8122 19.8664 19.9239 19.9833 20.0431 20.1019 20.1581 20.2105 20.2576 20.2985 20.3319 20.3572 20.3737 20.381 20.3789 20.3675 20.3471 20.3181 20.2815 20.2388 20.195 20.1669 20.208 20.4818 
20.9995 20.9409 20.8763 20.7902 20.6845 20.5621 20.4258 20.279 20.1253 19.9686 19.8126 19.6613 19.5182 19.3871 19.271 19.1729 19.0952 19.0397 19.0079 19.0005 19.0177 19.0591 19.1237 19.2098 19.3155 19.4379 19.5742 19.721 19.8747 20.0314 20.1874 20.3387 20.4818 20.6129 20.729 20.8271 20.9048 20.9603 20.9921 20.9995 20.9823 20.9409 20.8763 20.7902 20.6845 20.5621 20.4258 20.279 20.1253 20.3387 
