# vtk DataFile Version 3.0
Temperature distribution on a 2D grid
ASCII

DATASET STRUCTURED_POINTS
DIMENSIONS 50 50 1
ORIGIN 0.0 0.0 0.0
SPACING 0.01 0.01 1.0

POINT_DATA 2500
SCALARS temperature double
LOOKUP_TABLE default
19.0177 20.9995 20.9921 20.9603 20.9048 20.8271 20.729 20.6129 20.4818 20.3387 20.1874 20.0314 19.8747 19.721 19.5742 19.4379 19.3155 19.2098 19.1237 19.0591 19.0177 19.0005 19.0079 19.0397 19.0952 19.1729 19.271 19.3871 19.5182 19.6613 19.8126 19.9686 20.1253 20.279 20.4258 20.5621 20.6845 20.7902 20.8763 20.9409 20.9823 20.9995 20.9921 20.9603 20.9048 20.8271 20.729 20.6129 20.4818 20.1874 
19.0591 19.9911 20.2823 20.3806 20.388 20.3463 20.2759 20.188 20.0901 19.9875 19.8842 19.7836 19.6886 19.6015 19.5244 19.4594 19.4078 19.3708 19.3495 19.3442 19.355 19.3818 19.4237 19.4799 19.5489 19.629 19.7182 19.8144 19.9152 20.018 20.1205 20.22 20.3141 20.4005 20.4772 20.5421 20.5939 20.6312 20.6531 20.6588 20.6479 20.6201 20.5749 20.5122 20.4322 20.3364 20.2295 20.1236 20.0445 20.0314 
19.1237 19.5936 19.8657 20.0038 20.0554 20.0532 20.0186 19.966 19.9047 19.8412 19.7797 19.7234 19.6741 19.6335 19.6024 19.5815 19.5712 19.5717 19.5829 19.6044 19.6357 19.6759 19.7242 19.7792 19.8397 19.9042 19.971 20.0385 20.1052 20.1693 20.2292 20.2835 20.331 20.3703 20.4007 20.4214 20.432 20.4323 20.4221 20.4015 20.3704 20.3282 20.274 20.2066 20.1246 20.0289 19.925 19.8308 19.7871 19.8747 
19.2098 19.4479 19.6551 19.7951 19.8719 19.9011 19.8985 19.8771 19.8467 19.8138 19.7829 19.7569 19.7371 19.7246 19.7196 19.7221 19.7318 19.7485 19.7715 19.8002 19.8339 19.8718 19.9127 19.9559 20.0001 20.0443 20.0875 20.1286 20.1665 20.2004 20.2294 20.2528 20.2701 20.2808 20.2848 20.2822 20.2729 20.2574 20.2359 20.2087 20.1755 20.1353 20.0865 20.0263 19.9516 19.8612 19.7597 19.6657 19.6238 19.721 
19.3155 19.4184 19.568 19.6978 19.7877 19.8389 19.8605 19.8629 19.855 19.8432 19.8319 19.824 19.8206 19.8225 19.8296 19.8416 19.858 19.8783 19.9018 19.9279 19.9557 19.9847 20.014 20.0431 20.071 20.0973 20.1212 20.1421 20.1596 20.1732 20.1827 20.1877 20.1881 20.1842 20.1759 20.1637 20.1479 20.1292 20.1078 20.084 20.0573 20.0263 19.9883 19.939 19.8737 19.7884 19.6851 19.5798 19.5147 19.5742 
19.4379 19.4475 19.5495 19.6652 19.7602 19.8252 19.8635 19.8823 19.8892 19.8904 19.8903 19.8916 19.8957 19.9031 19.9138 19.9274 19.9433 19.9611 19.9801 19.9996 20.0193 20.0385 20.0568 20.0736 20.0887 20.1016 20.1121 20.1199 20.1247 20.1266 20.1254 20.1212 20.1141 20.1044 20.0925 20.0787 20.0636 20.0478 20.0315 20.015 19.9975 19.9772 19.9506 19.9123 19.8555 19.7738 19.6654 19.5417 19.4397 19.4379 
19.5742 19.5083 19.5676 19.6663 19.7602 19.8326 19.8811 19.9102 19.9262 19.9348 19.9402 19.9452 19.9515 19.9595 19.9694 19.9808 19.9933 20.0064 20.0196 20.0324 20.0446 20.0556 20.0653 20.0734 20.0797 20.0841 20.0865 20.0867 20.0849 20.0811 20.0754 20.0679 20.0588 20.0486 20.0374 20.0258 20.0143 20.0035 19.9936 19.9847 19.9759 19.9653 19.9487 19.92 19.8705 19.7912 19.6766 19.5323 19.3885 19.3155 
19.721 19.5875 19.605 19.6832 19.771 19.8453 19.8992 19.9343 19.9555 19.9679 19.9755 19.9814 19.9872 19.9937 20.001 20.0091 20.0176 20.0261 20.0342 20.0416 20.048 20.0533 20.0573 20.0599 20.0611 20.0607 20.059 20.0558 20.0513 20.0456 20.0389 20.0313 20.0231 20.0145 20.0059 19.9977 19.9904 19.9844 19.9801 19.9775 19.9759 19.973 19.9646 19.9437 19.9007 19.824 19.7041 19.5407 19.3557 19.2098 
19.8747 19.6779 19.653 19.7072 19.7845 19.8564 19.912 19.9502 19.9741 19.9883 19.9967 20.0021 20.0066 20.011 20.0157 20.0207 20.0257 20.0305 20.0349 20.0385 20.0413 20.043 20.0438 20.0434 20.042 20.0396 20.0363 20.0321 20.0272 20.0217 20.0158 20.0096 20.0032 19.997 19.9912 19.9861 19.9823 19.9801 19.98 19.982 19.9855 19.9884 19.9864 19.9723 19.9355 19.8624 19.7397 19.561 19.3392 19.1237 
20.0314 19.7755 19.7075 19.7348 19.798 19.8641 19.9186 19.9577 19.9831 19.9981 20.0067 20.0115 20.0147 20.0173 20.0198 20.0224 20.025 20.0273 20.0293 20.0307 20.0314 20.0313 20.0305 20.0289 20.0266 20.0238 20.0203 20.0164 20.0122 20.0078 20.0032 19.9987 19.9943 19.9902 19.9867 19.984 19.9827 19.983 19.9856 19.9906 19.9975 20.0046 20.0077 19.9998 19.9694 19.9015 19.7793 19.5903 19.338 19.0591 
20.1874 19.8773 19.7666 19.765 19.8112 19.869 19.9203 19.959 19.9848 20.0005 20.0091 20.0136 20.0159 20.0172 20.0183 20.0194 20.0205 20.0214 20.022 20.0222 20.022 20.0212 20.0199 20.0181 20.0159 20.0133 20.0104 20.0074 20.0042 20.0009 19.9978 19.9947 19.9919 19.9894 19.9875 19.9864 19.9865 19.9883 19.9923 19.999 20.0081 20.0181 20.0255 20.0233 20 19.9392 19.8211 19.6273 19.3518 19.0177 
20.3387 19.981 19.8293 19.7979 19.8252 19.8726 19.9192 19.9564 19.9822 19.9982 20.0072 20.0116 20.0135 20.0142 20.0146 20.0148 20.0151 20.0153 20.0153 20.0151 20.0146 20.0137 20.0125 20.011 20.0092 20.0073 20.0051 20.0029 20.0007 19.9985 19.9964 19.9945 19.9928 19.9914 19.9904 19.9901 19.9909 19.9933 19.9979 20.0053 20.0156 20.0279 20.0389 20.0423 20.0266 19.9747 19.8642 19.6712 19.3805 19.0005 
20.4818 20.0844 19.8947 19.8336 19.8409 19.8765 19.9172 19.952 19.9773 19.9937 20.003 20.0077 20.0097 20.0103 20.0104 20.0103 20.0102 20.0102 20.0101 20.0098 20.0094 20.0088 20.0079 20.0068 20.0055 20.0042 20.0027 20.0012 19.9998 19.9984 19.9971 19.9959 19.9949 19.9941 19.9936 19.9936 19.9946 19.997 20.0016 20.0091 20.02 20.0338 20.0481 20.0569 20.0494 20.008 19.9082 19.7216 19.4235 19.0079 
20.6129 20.1852 19.9617 19.8722 19.8591 19.8819 19.9156 19.9474 19.9718 19.9883 19.9982 20.0034 20.0057 20.0065 20.0066 20.0065 20.0064 20.0064 20.0063 20.0062 20.006 20.0057 20.0052 20.0045 20.0037 20.0029 20.0019 20.001 20.0001 19.9992 19.9984 19.9977 19.997 19.9965 19.9961 19.9962 19.997 19.9991 20.0033 20.0106 20.0217 20.0366 20.0536 20.0678 20.0687 20.0391 19.953 19.7777 19.4802 19.0397 
20.729 20.2812 20.0293 19.9132 19.88 19.8895 19.9155 19.9435 19.9667 19.9831 19.9935 19.9993 20.0021 20.0032 20.0036 20.0036 20.0037 20.0037 20.0039 20.0039 20.004 20.0039 20.0037 20.0033 20.0029 20.0024 20.0019 20.0013 20.0007 20.0002 19.9997 19.9992 19.9987 19.9982 19.9978 19.9977 19.9982 19.9998 20.0035 20.0102 20.0212 20.0369 20.0563 20.0754 20.085 20.068 19.9979 19.8386 19.5492 19.0952 
20.8271 20.3702 20.0959 19.9562 19.9036 19.8995 19.9173 19.941 19.9624 19.9785 19.9893 19.9957 19.9991 20.0006 20.0013 20.0016 20.0018 20.002 20.0022 20.0025 20.0027 20.0028 20.0028 20.0027 20.0026 20.0023 20.002 20.0016 20.0013 20.0009 20.0005 20.0001 19.9997 19.9992 19.9988 19.9984 19.9985 19.9995 20.0025 20.0086 20.0191 20.0352 20.0566 20.0803 20.0983 20.0945 20.0423 19.9031 19.6292 19.1729 
20.9048 20.4501 20.1601 20.0002 19.9295 19.912 19.9212 19.94 19.9592 19.9748 19.9857 19.9926 19.9966 19.9986 19.9996 20.0001 20.0005 20.0008 20.0012 20.0015 20.0019 20.0021 20.0023 20.0023 20.0023 20.0022 20.002 20.0018 20.0015 20.0013 20.001 20.0006 20.0002 19.9997 19.9991 19.9985 19.9981 19.9986 20.0008 20.0061 20.016 20.0321 20.055 20.0828 20.1089 20.1184 20.0854 19.9698 19.7183 19.271 
20.9603 20.5188 20.2203 20.0441 19.9572 19.9268 19.9271 19.9407 19.9573 19.9719 19.9829 19.9901 19.9945 19.997 19.9983 19.999 19.9995 20 20.0004 20.0009 20.0013 20.0016 20.0018 20.002 20.002 20.002 20.0019 20.0017 20.0015 20.0013 20.0011 20.0007 20.0003 19.9997 19.999 19.9981 19.9974 19.9974 19.9988 20.0032 20.0122 20.028 20.0519 20.0831 20.1166 20.1393 20.1264 20.0371 19.8142 19.3871 
20.9921 20.5748 20.2751 20.0871 19.986 19.9435 19.935 19.943 19.9566 19.9699 19.9806 19.9881 19.9928 19.9957 19.9973 19.9982 19.9989 19.9994 19.9999 20.0003 20.0008 20.0011 20.0014 20.0016 20.0017 20.0017 20.0016 20.0015 20.0013 20.0011 20.0009 20.0006 20.0001 19.9995 19.9987 19.9976 19.9966 19.9959 19.9966 20 20.008 20.0231 20.0474 20.0813 20.1214 20.1567 20.1642 20.1036 19.9147 19.5182 
20.9995 20.6167 20.3232 20.1279 20.0152 19.9615 19.9445 19.9468 19.9571 19.9688 19.9789 19.9864 19.9915 19.9946 19.9965 19.9976 19.9983 19.9989 19.9994 19.9999 20.0003 20.0007 20.0009 20.0011 20.0013 20.0013 20.0012 20.0011 20.001 20.0008 20.0006 20.0003 19.9998 19.9992 19.9982 19.997 19.9957 19.9945 19.9944 19.9967 20.0035 20.0176 20.0416 20.0774 20.1231 20.1702 20.1979 20.1675 20.0173 19.6613 
20.9823 20.6433 20.3634 20.1655 20.044 19.9806 19.9554 19.9519 19.9586 19.9685 19.9778 19.9852 19.9904 19.9937 19.9958 19.9971 19.9979 19.9985 19.999 19.9995 19.9999 20.0002 20.0005 20.0007 20.0008 20.0009 20.0008 20.0007 20.0006 20.0004 20.0002 19.9999 19.9995 19.9988 19.9978 19.9964 19.9948 19.9932 19.9923 19.9935 19.9989 20.0116 20.0349 20.0716 20.1219 20.1796 20.2268 20.2272 20.1195 19.8126 
20.9409 20.6542 20.3945 20.1991 20.0718 20.0001 19.9673 19.9582 19.9612 19.9689 19.9773 19.9843 19.9895 19.993 19.9952 19.9966 19.9976 19.9982 19.9987 19.9991 19.9995 19.9999 20.0001 20.0003 20.0004 20.0005 20.0004 20.0004 20.0002 20.0001 19.9998 19.9995 19.9991 19.9984 19.9974 19.9959 19.994 19.9919 19.9903 19.9904 19.9943 20.0053 20.0272 20.064 20.1176 20.1845 20.2501 20.2814 20.2187 19.9686 
20.8763 20.6489 20.416 20.2278 20.0977 20.0196 19.9801 19.9655 19.9647 19.9701 19.9772 19.9838 19.9889 19.9925 19.9948 19.9963 19.9973 19.998 19.9985 19.9989 19.9993 19.9996 19.9998 20 20.0001 20.0001 20.0001 20 19.9999 19.9997 19.9995 19.9992 19.9988 19.9981 19.997 19.9955 19.9934 19.9909 19.9885 19.9875 19.9898 19.9988 20.0189 20.0549 20.1104 20.1848 20.2672 20.3286 20.3125 20.1253 
20.7902 20.6276 20.4272 20.2508 20.1212 20.0386 19.9933 19.9736 19.969 19.972 19.9777 19.9837 19.9885 19.9921 19.9945 19.9961 19.9971 19.9978 19.9983 19.9987 19.9991 19.9994 19.9996 19.9998 19.9999 19.9999 19.9999 19.9998 19.9997 19.9995 19.9993 19.9989 19.9985 19.9978 19.9967 19.9951 19.9929 19.99 19.987 19.9849 19.9855 19.9924 20.01 20.0443 20.1005 20.1806 20.2777 20.3677 20.3987 20.279 
20.6845 20.5908 20.4278 20.2676 20.1417 20.0566 20.0066 19.9822 19.974 19.9745 19.9787 19.9839 19.9884 19.9919 19.9944 19.996 19.9971 19.9978 19.9983 19.9986 19.999 19.9992 19.9995 19.9996 19.9997 19.9998 19.9997 19.9996 19.9995 19.9993 19.9991 19.9988 19.9983 19.9976 19.9965 19.9949 19.9925 19.9894 19.9858 19.9825 19.9815 19.986 20.0009 20.0326 20.088 20.1718 20.2813 20.3978 20.475 20.4258 
20.5621 20.5395 20.4179 20.2778 20.1586 20.0731 20.0197 19.9913 19.9796 19.9775 19.9802 19.9844 19.9886 19.9919 19.9943 19.996 19.9971 19.9978 19.9983 19.9987 19.999 19.9992 19.9994 19.9996 19.9997 19.9997 19.9997 19.9996 19.9994 19.9992 19.999 19.9987 19.9982 19.9975 19.9964 19.9948 19.9924 19.989 19.9849 19.9806 19.9779 19.9799 19.9916 20.02 20.0733 20.1588 20.278 20.418 20.5396 20.5621 
20.4258 20.4749 20.3977 20.2811 20.1716 20.0877 20.0322 20.0005 19.9856 19.9811 19.9821 19.9853 19.9889 19.992 19.9944 19.9961 19.9972 19.9979 19.9984 19.9988 19.999 19.9993 19.9995 19.9997 19.9998 19.9998 19.9998 19.9997 19.9995 19.9993 19.999 19.9986 19.9982 19.9975 19.9965 19.9948 19.9924 19.9889 19.9843 19.9791 19.9748 19.9743 19.9825 20.0069 20.0568 20.1419 20.2678 20.4279 20.5909 20.6845 
20.279 20.3986 20.3676 20.2775 20.1803 20.1002 20.0439 20.0096 19.9919 19.985 19.9843 19.9865 19.9895 19.9924 19.9946 19.9962 19.9973 19.9981 19.9986 19.9989 19.9992 19.9995 19.9997 19.9998 19.9999 20 19.9999 19.9998 19.9996 19.9994 19.9991 19.9987 19.9983 19.9976 19.9966 19.995 19.9926 19.989 19.9841 19.9781 19.9723 19.9693 19.9738 19.9935 20.0388 20.1214 20.2509 20.4273 20.6276 20.7902 
20.1253 20.3125 20.3285 20.2669 20.1845 20.1101 20.0544 20.0184 19.9983 19.9893 19.9869 19.988 19.9903 19.9928 19.9949 19.9965 19.9976 19.9983 19.9988 19.9992 19.9995 19.9997 19.9999 20.0001 20.0002 20.0002 20.0002 20.0001 19.9999 19.9996 19.9993 19.9989 19.9984 19.9978 19.9968 19.9953 19.9929 19.9893 19.9842 19.9776 19.9705 19.965 19.9657 19.9803 20.0198 20.0979 20.2279 20.4161 20.6489 20.8763 
19.9686 20.2186 20.2812 20.2498 20.1842 20.1173 20.0636 20.0267 20.0048 19.9938 19.9898 19.9897 19.9913 19.9934 19.9953 19.9968 19.9979 19.9986 19.9991 19.9995 19.9998 20 20.0002 20.0004 20.0005 20.0005 20.0005 20.0004 20.0002 19.9999 19.9996 19.9992 19.9987 19.998 19.9971 19.9957 19.9935 19.99 19.9847 19.9777 19.9693 19.9615 19.9585 19.9676 20.0003 20.072 20.1993 20.3946 20.6542 20.9409 
19.8126 20.1194 20.2271 20.2265 20.1793 20.1215 20.0711 20.0344 20.011 19.9983 19.9928 19.9916 19.9925 19.9941 19.9958 19.9971 19.9982 19.9989 19.9994 19.9998 20.0001 20.0003 20.0006 20.0007 20.0009 20.0009 20.0009 20.0008 20.0005 20.0003 19.9999 19.9995 19.999 19.9984 19.9976 19.9963 19.9942 19.9909 19.9857 19.9783 19.9689 19.959 19.9522 19.9557 19.9809 20.0443 20.1657 20.3635 20.6434 20.9823 
19.6613 20.0172 20.1673 20.1977 20.1699 20.1228 20.0769 20.0411 20.017 20.0029 19.996 19.9937 19.9937 19.9949 19.9963 19.9975 19.9984 19.9991 19.9996 20 20.0003 20.0006 20.0008 20.001 20.0012 20.0012 20.0012 20.0011 20.0009 20.0006 20.0003 19.9999 19.9994 19.9989 19.9982 19.997 19.9952 19.9921 19.987 19.9795 19.9693 19.9575 19.9472 19.9448 19.9619 20.0155 20.1281 20.3234 20.6168 20.9995 
19.5182 19.9146 20.1034 20.1639 20.1564 20.121 20.0808 20.0468 20.0225 20.0073 19.9992 19.9958 19.9951 19.9957 19.9967 19.9977 19.9986 19.9993 19.9998 20.0001 20.0005 20.0007 20.001 20.0012 20.0014 20.0015 20.0016 20.0015 20.0013 20.0011 20.0007 20.0004 19.9999 19.9995 19.9989 19.998 19.9964 19.9936 19.9888 19.9813 19.9706 19.9572 19.9436 19.9355 19.9439 19.9864 20.0873 20.2753 20.5749 20.9921 
19.3871 19.8141 20.037 20.1262 20.139 20.1162 20.0827 20.0513 20.0274 20.0115 20.0023 19.9979 19.9963 19.9963 19.997 19.9978 19.9985 19.9991 19.9996 20 20.0003 20.0007 20.001 20.0013 20.0015 20.0017 20.0018 20.0018 20.0017 20.0016 20.0013 20.001 20.0007 20.0003 19.9999 19.9992 19.9979 19.9955 19.9911 19.9838 19.9729 19.9582 19.9415 19.9278 19.9274 19.9577 20.0445 20.2206 20.519 20.9603 
19.271 19.7182 19.9696 20.0852 20.1182 20.1085 20.0823 20.0544 20.0314 20.0151 20.005 19.9996 19.9973 19.9967 19.9969 19.9975 19.9981 19.9986 19.9991 19.9995 19.9999 20.0003 20.0007 20.0011 20.0015 20.0018 20.002 20.0022 20.0023 20.0022 20.0021 20.0019 20.0017 20.0015 20.0013 20.0009 19.9999 19.9979 19.994 19.9871 19.9761 19.9604 19.9411 19.9221 19.9128 19.9302 20.0006 20.1604 20.4502 20.9048 
19.1729 19.6291 19.9029 20.042 20.0941 20.0977 20.0796 20.0557 20.0341 20.0178 20.0071 20.0008 19.9977 19.9965 19.9963 19.9966 19.997 19.9975 19.998 19.9985 19.999 19.9995 20.0001 20.0007 20.0013 20.0019 20.0024 20.0028 20.0031 20.0033 20.0033 20.0034 20.0033 20.0033 20.0033 20.0031 20.0025 20.001 19.9976 19.9912 19.9803 19.964 19.9424 19.9185 19.9005 19.9043 19.9567 20.0962 20.3704 20.8271 
19.0952 19.549 19.8382 19.9972 20.0671 20.0839 20.0741 20.0548 20.0351 20.0191 20.008 20.001 19.9971 19.9953 19.9947 19.9948 19.9952 19.9957 19.9963 19.997 19.9977 19.9986 19.9995 20.0004 20.0014 20.0023 20.0032 20.004 20.0046 20.0051 20.0054 20.0056 20.0058 20.006 20.0061 20.0062 20.0059 20.0047 20.0018 19.9959 19.9853 19.9686 19.9451 19.9168 19.8904 19.8807 19.9137 20.0295 20.2813 20.729 
19.0397 19.4797 19.7768 19.9516 20.0373 20.0666 20.0654 20.0509 20.0336 20.0184 20.0071 19.9996 19.9951 19.9929 19.9921 19.992 19.9925 19.9932 19.9941 19.9952 19.9964 19.9978 19.9992 20.0007 20.0022 20.0037 20.005 20.0063 20.0073 20.0081 20.0088 20.0092 20.0096 20.0098 20.01 20.0102 20.01 20.0091 20.0065 20.001 19.9907 19.9738 19.9488 19.9166 19.8824 19.8593 19.8722 19.9617 20.1851 20.6129 
19.0079 19.4226 19.7198 19.9056 20.0047 20.0455 20.0526 20.0434 20.0289 20.0148 20.0037 19.9961 19.9914 19.989 19.9882 19.9884 19.9892 19.9905 19.992 19.9938 19.9958 19.9979 20.0001 20.0024 20.0046 20.0068 20.0087 20.0105 20.012 20.0131 20.014 20.0145 20.0148 20.015 20.015 20.0149 20.0146 20.0136 20.0111 20.0058 19.9958 19.9787 19.9526 19.9172 19.876 19.8401 19.8327 19.8939 20.0839 20.4818 
19.0005 19.3788 19.668 19.8595 19.9689 20.02 20.0351 20.0313 20.0201 20.0078 19.9975 19.9903 19.986 19.9839 19.9837 19.9845 19.9862 19.9885 19.9911 19.994 19.9971 20.0004 20.0036 20.0069 20.01 20.0129 20.0154 20.0176 20.0194 20.0206 20.0214 20.0217 20.0216 20.0211 20.0205 20.0197 20.0187 20.0171 20.0143 20.0089 19.9989 19.9818 19.9549 19.917 19.8698 19.8222 19.7952 19.8273 19.9799 20.3387 
19.0177 19.349 19.6219 19.8135 19.9299 19.9895 20.0121 20.0141 20.0068 19.9971 19.9886 19.9827 19.9795 19.9787 19.9798 19.9821 19.9854 19.9892 19.9935 19.998 20.0026 20.0072 20.0117 20.016 20.0199 20.0233 20.0262 20.0284 20.03 20.0307 20.0308 20.0301 20.0289 20.0272 20.0251 20.0229 20.0205 20.0177 20.0139 20.0079 19.9977 19.9807 19.9536 19.914 19.8623 19.8048 19.7595 19.7626 19.8751 20.1874 
19.0591 19.3338 19.5822 19.768 19.8878 19.9542 19.984 19.9921 19.9896 19.9838 19.9784 19.9751 19.9744 19.976 19.9795 19.9842 19.9899 19.9961 20.0025 20.0089 20.0152 20.0212 20.0268 20.0317 20.0359 20.0392 20.0416 20.043 20.0433 20.0425 20.0407 20.038 20.0345 20.0304 20.0259 20.0213 20.0167 20.0119 20.0066 19.9997 19.9892 19.9724 19.9458 19.906 19.8516 19.7865 19.7254 19.7009 19.7721 20.0314 
19.1237 19.3334 19.55 19.7244 19.8441 19.9157 19.9524 19.9675 19.9714 19.971 19.9705 19.9717 19.9751 19.9806 19.9877 19.9959 20.0047 20.0136 20.0224 20.0307 20.0384 20.0452 20.0509 20.0554 20.0586 20.0604 20.0607 20.0595 20.0569 20.0529 20.0476 20.0411 20.0339 20.026 20.0179 20.0099 20.0022 19.995 19.9879 19.98 19.9696 19.9539 19.929 19.8909 19.8366 19.7672 19.6936 19.6439 19.6734 19.8747 
19.2098 19.349 19.5278 19.6862 19.803 19.8786 19.9226 19.946 19.9582 19.9656 19.9723 19.98 19.9893 20.0001 20.0119 20.0241 20.0362 20.0477 20.0582 20.0673 20.0749 20.0807 20.0846 20.0864 20.0862 20.0838 20.0794 20.0731 20.0649 20.0552 20.0441 20.0321 20.0193 20.0064 19.9936 19.9816 19.9707 19.9611 19.9527 19.9448 19.9357 19.9228 19.9021 19.8687 19.8182 19.7489 19.6672 19.5955 19.5834 19.721 
19.3155 19.3826 19.5209 19.6607 19.773 19.8526 19.9049 19.9386 19.9615 19.9792 19.9953 20.0114 20.028 20.0449 20.0615 20.0772 20.0914 20.1037 20.1135 20.1207 20.125 20.1262 20.1244 20.1196 20.1118 20.1014 20.0884 20.0733 20.0564 20.0381 20.0189 19.9993 19.9798 19.9611 19.9437 19.9282 19.9152 19.9049 19.8973 19.8919 19.8872 19.8805 19.8678 19.8438 19.8023 19.7388 19.6545 19.5641 19.5091 19.5742 
19.4379 19.4394 19.5396 19.6617 19.7702 19.8548 19.9172 19.9634 19.9992 20.0293 20.0562 20.0814 20.1051 20.1268 20.1462 20.1624 20.175 20.1835 20.1877 20.1873 20.1823 20.173 20.1594 20.1419 20.121 20.0971 20.0708 20.0428 20.0138 19.9844 19.9554 19.9276 19.9017 19.8784 19.8584 19.8424 19.8309 19.8242 19.8223 19.8247 19.8299 19.8353 19.8368 19.8286 19.8032 19.7529 19.6727 19.5672 19.4641 19.4379 
19.5742 19.5296 19.6029 19.7128 19.8205 19.9122 19.9866 20.0466 20.0962 20.1385 20.1751 20.207 20.2339 20.2556 20.2715 20.2812 20.2841 20.2803 20.2697 20.2525 20.2291 20.2002 20.1663 20.1284 20.0874 20.0442 19.9999 19.9557 19.9125 19.8715 19.8337 19.8 19.7714 19.7485 19.7321 19.7227 19.7207 19.7261 19.7387 19.7577 19.7817 19.8078 19.8321 19.8483 19.848 19.8204 19.7535 19.6374 19.4759 19.3155 
19.721 19.6739 19.7427 19.851 19.9626 20.063 20.149 20.2211 20.2812 20.3307 20.3704 20.4005 20.4208 20.4311 20.4311 20.4208 20.4002 20.37 20.3307 20.2833 20.229 20.1691 20.105 20.0384 19.9709 19.904 19.8396 19.7791 19.724 19.6758 19.6355 19.6043 19.5828 19.5718 19.5715 19.582 19.6032 19.6346 19.6753 19.7241 19.779 19.8371 19.8943 19.9445 19.9792 19.9859 19.9461 19.8319 19.6037 19.2098 
19.8747 19.9134 20.0102 20.1292 20.247 20.3534 20.4447 20.5198 20.5788 20.6215 20.648 20.6583 20.6524 20.6306 20.5935 20.5418 20.4769 20.4003 20.314 20.2199 20.1204 20.018 19.9151 19.8143 19.7181 19.6289 19.5488 19.4798 19.4237 19.3817 19.355 19.3441 19.3494 19.3709 19.4079 19.4596 19.5249 19.602 19.6892 19.7841 19.8839 19.9854 20.0846 20.1763 20.2534 20.3054 20.3137 20.2395 19.987 19.1237 
20.0314 20.3387 20.4818 20.6129 20.729 20.8271 20.9048 20.9603 20.9921 20.9995 20.9823 20.9409 20.8763 20.7902 20.6845 20.5621 20.4258 20.279 20.1253 19.9686 19.8126 19.6613 19.5182 19.3871 19.271 19.1729 19.0952 19.0397 19.0079 19.0005 19.0177 19.0591 19.1237 19.2098 19.3155 19.4379 19.5742 19.721 19.8747 20.0314 20.1874 20.3387 20.4818 20.6129 20.729 20.8271 20.9048 20.9603 20.9921 19.0591 
