# vtk DataFile Version 3.0
Temperature distribution on a 2D grid
ASCII

DATASET STRUCTURED_POINTS
DIMENSIONS 50 50 1
ORIGIN 0.0 0.0 0.0
SPACING 0.01 0.01 1.0

POINT_DATA 2500
SCALARS temperature double
LOOKUP_TABLE default
19.491 20.6374 20.7501 20.8443 20.9178 20.9686 20.9956 20.998 20.9759 20.9298 20.8607 20.7705 20.6613 20.5358 20.3971 20.2487 20.0941 19.9372 19.7819 19.6319 19.491 19.3626 19.2499 19.1557 19.0822 19.0314 19.0044 19.002 19.0241 19.0702 19.1393 19.2295 19.3387 19.4642 19.6029 19.7513 19.9059 20.0628 20.2181 20.3681 20.509 20.6374 20.7501 20.8443 20.9178 20.9686 20.9956 20.998 20.9759 20.8607 
19.6319 20.1444 20.3689 20.4975 20.5698 20.603 20.6058 20.5837 20.5409 20.4809 20.4068 20.3214 20.2276 20.1279 20.0251 19.9218 19.8205 19.7236 19.6337 19.5528 19.483 19.4259 19.3829 19.3551 19.3433 19.3476 19.3679 19.4039 19.4545 19.5186 19.5945 19.6804 19.7742 19.8737 19.9762 20.0795 20.1808 20.2776 20.3674 20.4478 20.5164 20.5711 20.61 20.6322 20.6381 20.6311 20.6192 20.6181 20.6552 20.7705 
19.7819 19.9363 20.0831 20.1926 20.2611 20.2935 20.2963 20.2757 20.2375 20.1865 20.1268 20.0616 19.9939 19.9259 19.8597 19.7971 19.7397 19.6888 19.6458 19.6115 19.5868 19.5724 19.5685 19.5753 19.5925 19.6197 19.6564 19.7014 19.7539 19.8124 19.8756 19.9418 20.0096 20.0772 20.143 20.2053 20.2627 20.3136 20.3565 20.3899 20.4122 20.4219 20.4179 20.3999 20.3701 20.335 20.3094 20.3206 20.4146 20.6613 
19.9372 19.8713 19.9146 19.9825 20.0397 20.0744 20.0857 20.0771 20.0535 20.0198 19.98 19.9376 19.8952 19.8548 19.818 19.7858 19.7591 19.7386 19.7247 19.7177 19.7177 19.7247 19.7386 19.7588 19.7851 19.8166 19.8527 19.8924 19.9347 19.9787 20.0232 20.0672 20.1097 20.1495 20.1858 20.2177 20.2444 20.2651 20.2789 20.2847 20.2815 20.2678 20.2425 20.2054 20.1589 20.1111 20.0801 20.0995 20.2246 20.5358 
20.0941 19.8852 19.8399 19.8637 19.9055 19.941 19.9615 19.9665 19.9588 19.9423 19.9209 19.8978 19.8753 19.8551 19.8384 19.8259 19.8179 19.8147 19.8163 19.8225 19.8332 19.8481 19.8667 19.8887 19.9134 19.9402 19.9686 19.9977 20.0269 20.0554 20.0826 20.1079 20.1306 20.1502 20.1663 20.1786 20.1867 20.1902 20.1887 20.1813 20.1669 20.1439 20.1108 20.0667 20.0135 19.9592 19.9224 19.9391 20.0687 20.3971 
20.2487 19.9442 19.8299 19.8142 19.8393 19.8728 19.9 19.9161 19.9215 19.919 19.9117 19.9025 19.8935 19.8862 19.8816 19.88 19.8816 19.8865 19.8944 19.9051 19.9182 19.9334 19.9503 19.9684 19.9874 20.0066 20.0257 20.0442 20.0616 20.0776 20.0916 20.1035 20.1129 20.1197 20.1239 20.1252 20.1238 20.1195 20.112 20.1004 20.0835 20.0594 20.0258 19.981 19.9256 19.8662 19.8203 19.8235 19.9363 20.2487 
20.3971 20.0278 19.8606 19.8108 19.8188 19.8477 19.878 19.9014 19.916 19.9233 19.9255 19.9252 19.9243 19.9241 19.9255 19.9289 19.9342 19.9415 19.9505 19.9609 19.9724 19.9846 19.9973 20.0101 20.0226 20.0346 20.0457 20.0557 20.0644 20.0715 20.0769 20.0805 20.0822 20.0821 20.0803 20.0769 20.0719 20.0655 20.0573 20.0465 20.0316 20.0104 19.9798 19.9371 19.8811 19.8164 19.7581 19.7397 19.8209 20.0941 
20.5358 20.1227 19.9145 19.8351 19.8258 19.8476 19.8776 19.9046 19.9247 19.938 19.9459 19.9506 19.9539 19.957 19.9607 19.9654 19.9712 19.978 19.9856 19.9937 20.0021 20.0106 20.0188 20.0266 20.0338 20.0401 20.0455 20.0498 20.0528 20.0546 20.0551 20.0543 20.0523 20.0492 20.0452 20.0406 20.0355 20.0299 20.0236 20.0158 20.0048 19.988 19.9617 19.9219 19.8659 19.7957 19.7231 19.6782 19.7185 19.9372 
20.6613 20.2202 19.9799 19.8742 19.8476 19.8602 19.887 19.9145 19.9371 19.9535 19.9644 19.9716 19.9766 19.9807 19.9847 19.989 19.9937 19.9988 20.0042 20.0097 20.0151 20.0201 20.0248 20.0288 20.0322 20.0348 20.0366 20.0374 20.0374 20.0365 20.0347 20.0321 20.0288 20.0251 20.0211 20.0171 20.0132 20.0097 20.0062 20.0019 19.995 19.9828 19.961 19.9245 19.8689 19.7934 19.7062 19.6331 19.6276 19.7819 
20.7705 20.3145 20.0495 19.9203 19.8763 19.8781 19.8994 19.9252 19.9481 19.9656 19.9778 19.986 19.9915 19.9955 19.9988 20.002 20.0052 20.0086 20.0119 20.0151 20.0181 20.0207 20.0228 20.0244 20.0255 20.0259 20.0257 20.0249 20.0235 20.0215 20.019 20.0162 20.013 20.0097 20.0066 20.0038 20.0017 20.0003 19.9994 19.9984 19.9954 19.9874 19.9699 19.9368 19.8821 19.8022 19.7015 19.6005 19.5478 19.6319 
20.8607 20.4016 20.1184 19.9688 19.9077 19.8976 19.912 19.9343 19.9559 19.9733 19.9858 19.9941 19.9995 20.003 20.0056 20.0077 20.0096 20.0114 20.0132 20.0148 20.0161 20.0171 20.0178 20.018 20.0179 20.0173 20.0163 20.0149 20.0131 20.0111 20.0087 20.0062 20.0037 20.0013 19.9992 19.9977 19.9971 19.9975 19.9988 20.0003 20.0005 19.9962 19.9828 19.9534 19.9005 19.8178 19.7056 19.5789 19.4796 19.491 
20.9298 20.4786 20.184 20.0169 19.9396 19.9173 19.9236 19.9414 19.9607 19.9772 19.9893 19.9975 20.0027 20.0058 20.0077 20.0089 20.0099 20.0107 20.0114 20.012 20.0124 20.0125 20.0124 20.0121 20.0114 20.0105 20.0094 20.008 20.0064 20.0047 20.0028 20.0009 19.9991 19.9975 19.9964 19.9959 19.9963 19.9979 20.0008 20.0043 20.007 20.006 19.9965 19.9711 19.921 19.8375 19.7166 19.5673 19.4241 19.3626 
20.9759 20.5434 20.2441 20.0633 19.9712 19.9368 19.9345 19.9469 19.9633 19.9783 19.9899 19.9979 20.0028 20.0056 20.0071 20.0079 20.0083 20.0085 20.0086 20.0087 20.0086 20.0084 20.008 20.0075 20.0068 20.0059 20.0049 20.0038 20.0026 20.0013 20 19.9987 19.9975 19.9965 19.996 19.9961 19.9972 19.9996 20.0034 20.0083 20.0131 20.015 20.0092 19.9883 19.9422 19.86 19.7336 19.5657 19.3824 19.2499 
20.998 20.5944 20.2975 20.107 20.0021 19.956 19.9451 19.9517 19.9648 19.9781 19.9889 19.9965 20.0013 20.0041 20.0054 20.006 20.0061 20.0061 20.0059 20.0057 20.0055 20.0052 20.0048 20.0043 20.0038 20.0031 20.0024 20.0016 20.0008 19.9999 19.999 19.9982 19.9974 19.9968 19.9966 19.997 19.9984 20.0012 20.0056 20.0114 20.0178 20.0223 20.0204 20.0043 19.9634 19.8846 19.756 19.5739 19.3555 19.1557 
20.9956 20.6306 20.343 20.1473 20.0319 19.9753 19.9558 19.9565 19.9659 19.9772 19.9871 19.9945 19.9993 20.002 20.0034 20.004 20.004 20.0039 20.0037 20.0035 20.0033 20.0031 20.0028 20.0025 20.0021 20.0017 20.0012 20.0007 20.0002 19.9996 19.9991 19.9985 19.998 19.9976 19.9975 19.998 19.9994 20.0022 20.0068 20.0133 20.021 20.0279 20.0297 20.0189 19.9842 19.9109 19.7835 19.592 19.3441 19.0822 
20.9686 20.651 20.3797 20.1835 20.0604 19.9944 19.9669 19.9617 19.9673 19.9765 19.9854 19.9924 19.9971 20 20.0015 20.0022 20.0024 20.0023 20.0022 20.002 20.0019 20.0017 20.0016 20.0014 20.0012 20.001 20.0008 20.0005 20.0002 19.9998 19.9994 19.999 19.9986 19.9983 19.9982 19.9986 19.9999 20.0025 20.0071 20.0139 20.0226 20.0317 20.0372 20.0319 20.0044 19.9385 19.8156 19.6197 19.3487 19.0314 
20.9178 20.6553 20.4068 20.2149 20.0871 20.0135 19.9785 19.9676 19.9693 19.9762 19.984 19.9905 19.9952 19.9983 20 20.0008 20.0011 20.0012 20.0011 20.0011 20.001 20.001 20.0009 20.0009 20.0009 20.0008 20.0007 20.0005 20.0004 20.0001 19.9999 19.9995 19.9991 19.9988 19.9986 19.9988 19.9998 20.0022 20.0066 20.0135 20.023 20.034 20.0431 20.0435 20.0239 19.9672 19.8519 19.6564 19.3691 19.0044 
20.8443 20.6434 20.4239 20.2409 20.1115 20.032 19.9906 19.9743 19.9721 19.9766 19.9831 19.9891 19.9937 19.9968 19.9987 19.9997 20.0002 20.0004 20.0004 20.0005 20.0005 20.0006 20.0006 20.0007 20.0007 20.0007 20.0007 20.0006 20.0005 20.0004 20.0001 19.9998 19.9994 19.999 19.9987 19.9987 19.9994 20.0014 20.0055 20.0124 20.0224 20.035 20.0475 20.0537 20.0424 19.9963 19.8915 19.7014 19.405 19.002 
20.7501 20.6156 20.4305 20.2609 20.1331 20.0498 20.003 19.9816 19.9757 19.9777 19.9827 19.9881 19.9925 19.9957 19.9977 19.9989 19.9995 19.9999 20 20.0001 20.0002 20.0003 20.0004 20.0005 20.0006 20.0007 20.0007 20.0007 20.0006 20.0005 20.0003 20 19.9995 19.999 19.9985 19.9983 19.9987 20.0003 20.004 20.0106 20.021 20.035 20.0505 20.0623 20.0597 20.0253 19.9337 19.7537 19.4555 19.0241 
20.6374 20.5727 20.4265 20.2746 20.1515 20.0664 20.0153 19.9894 19.9799 19.9794 19.9829 19.9875 19.9916 19.9948 19.997 19.9983 19.9991 19.9995 19.9997 19.9999 20 20.0002 20.0003 20.0004 20.0006 20.0006 20.0007 20.0007 20.0006 20.0005 20.0003 20 19.9995 19.9989 19.9983 19.9978 19.9978 19.999 20.0022 20.0085 20.0189 20.0339 20.0521 20.0692 20.0755 20.0537 19.9775 19.812 19.5193 19.0702 
20.509 20.5157 20.412 20.2815 20.1662 20.0814 20.0273 19.9976 19.9847 19.9817 19.9836 19.9873 19.9911 19.9942 19.9964 19.9978 19.9987 19.9992 19.9995 19.9997 19.9999 20.0001 20.0002 20.0003 20.0005 20.0005 20.0006 20.0006 20.0005 20.0004 20.0002 19.9999 19.9994 19.9987 19.998 19.9973 19.997 19.9977 20.0003 20.0061 20.0164 20.032 20.0525 20.0745 20.0894 20.0807 20.0219 19.875 19.595 19.1393 
20.3681 20.446 20.3874 20.2814 20.1768 20.0944 20.0386 20.0058 19.9899 19.9844 19.9847 19.9875 19.9908 19.9937 19.9959 19.9974 19.9984 19.999 19.9994 19.9996 19.9998 20 20.0001 20.0002 20.0003 20.0004 20.0005 20.0005 20.0004 20.0003 20.0001 19.9997 19.9992 19.9985 19.9977 19.9968 19.9961 19.9964 19.9984 20.0035 20.0134 20.0293 20.0515 20.0779 20.1011 20.1058 20.0656 19.941 19.6807 19.2295 
20.2181 20.3653 20.3533 20.2744 20.183 20.105 20.049 20.014 19.9953 19.9876 19.9863 19.988 19.9907 19.9934 19.9956 19.9971 19.9981 19.9988 19.9992 19.9995 19.9997 19.9999 20 20.0001 20.0002 20.0003 20.0003 20.0003 20.0003 20.0001 19.9999 19.9996 19.9991 19.9983 19.9974 19.9963 19.9954 19.9951 19.9965 20.0009 20.01 20.0258 20.0493 20.0794 20.1103 20.1282 20.1078 20.0085 19.7742 19.3387 
20.0628 20.2757 20.3104 20.2607 20.1848 20.1131 20.0581 20.0217 20.0009 19.9911 19.9881 19.9888 19.9909 19.9933 19.9953 19.9969 19.9979 19.9987 19.9991 19.9994 19.9996 19.9998 19.9999 20 20.0001 20.0002 20.0002 20.0002 20.0001 20 19.9998 19.9995 19.999 19.9982 19.9972 19.996 19.9948 19.9941 19.9947 19.9982 20.0065 20.0218 20.0459 20.0789 20.1168 20.1475 20.1474 20.0757 19.8733 19.4642 
19.9059 20.1792 20.2599 20.2406 20.1819 20.1184 20.0658 20.0289 20.0064 19.9947 19.9902 19.9898 19.9913 19.9933 19.9952 19.9967 19.9978 19.9985 19.999 19.9994 19.9996 19.9998 19.9999 20 20.0001 20.0001 20.0001 20.0001 20 19.9999 19.9997 19.9994 19.9989 19.9982 19.9971 19.9958 19.9943 19.9931 19.9931 19.9956 20.0028 20.0172 20.0413 20.0765 20.1204 20.1632 20.1833 20.1411 19.9756 19.6029 
19.7513 20.0783 20.203 20.2145 20.1746 20.1207 20.0719 20.0354 20.0117 19.9985 19.9926 19.9911 19.9918 19.9935 19.9952 19.9966 19.9977 19.9985 19.999 19.9993 19.9996 19.9997 19.9999 20 20 20.0001 20.0001 20 20 19.9999 19.9997 19.9994 19.9989 19.9982 19.9971 19.9957 19.994 19.9923 19.9916 19.9931 19.999 20.0121 20.0358 20.0723 20.121 20.1748 20.2146 20.2031 20.0784 19.7513 
19.6029 19.9755 20.141 20.1831 20.163 20.1201 20.0762 20.0409 20.0167 20.0023 19.9951 19.9926 19.9926 19.9938 19.9953 19.9966 19.9977 19.9985 19.999 19.9994 19.9996 19.9998 19.9999 20 20 20.0001 20.0001 20 19.9999 19.9998 19.9997 19.9994 19.9989 19.9982 19.9972 19.9957 19.9938 19.9917 19.9903 19.9907 19.9952 20.0068 20.0293 20.0662 20.1187 20.1822 20.2407 20.26 20.1793 19.9059 
19.4642 19.8733 20.0756 20.1472 20.1473 20.1165 20.0786 20.0455 20.0213 20.006 19.9977 19.9942 19.9935 19.9942 19.9955 19.9967 19.9977 19.9985 19.9991 19.9994 19.9997 19.9999 20 20.0001 20.0001 20.0001 20.0001 20 20 19.9999 19.9997 19.9994 19.999 19.9983 19.9973 19.9958 19.9937 19.9914 19.9892 19.9886 19.9915 20.0013 20.0221 20.0585 20.1134 20.185 20.2609 20.3105 20.2757 20.0628 
19.3387 19.7742 20.0084 20.1076 20.128 20.11 20.079 20.0489 20.0254 20.0096 20.0004 19.996 19.9946 19.9948 19.9958 19.9969 19.9978 19.9986 19.9991 19.9995 19.9998 20 20.0001 20.0001 20.0002 20.0002 20.0001 20.0001 20 19.9999 19.9997 19.9995 19.9991 19.9985 19.9975 19.996 19.9939 19.9912 19.9884 19.9867 19.988 19.9957 20.0143 20.0493 20.1053 20.1833 20.2746 20.3534 20.3654 20.2181 
19.2295 19.6806 19.9409 20.0655 20.1056 20.1008 20.0776 20.0512 20.0288 20.0129 20.003 19.9979 19.9958 19.9956 19.9962 19.9971 19.998 19.9987 19.9992 19.9996 19.9999 20 20.0001 20.0002 20.0002 20.0002 20.0002 20.0001 20 19.9999 19.9998 19.9996 19.9993 19.9987 19.9978 19.9963 19.9941 19.9912 19.9879 19.9852 19.9849 19.9903 20.0062 20.0389 20.0947 20.177 20.2816 20.3875 20.4461 20.3681 
19.1393 19.595 19.8749 20.0217 20.0805 20.0891 20.0742 20.0521 20.0316 20.0159 20.0056 19.9998 19.9971 19.9963 19.9966 19.9973 19.9981 19.9988 19.9993 19.9997 19.9999 20.0001 20.0002 20.0002 20.0003 20.0003 20.0002 20.0002 20.0001 20 19.9999 19.9998 19.9995 19.999 19.9982 19.9968 19.9946 19.9916 19.9878 19.9841 19.9821 19.9851 19.998 20.0277 20.0817 20.1665 20.2817 20.4122 20.5158 20.509 
19.0702 19.5193 19.8119 19.9774 20.0535 20.0752 20.0689 20.0518 20.0335 20.0185 20.008 20.0016 19.9984 19.9971 19.9971 19.9975 19.9982 19.9988 19.9992 19.9996 19.9999 20 20.0001 20.0002 20.0002 20.0003 20.0002 20.0002 20.0002 20.0001 20 20 19.9998 19.9994 19.9987 19.9975 19.9953 19.9922 19.9881 19.9835 19.9799 19.9804 19.9899 20.0157 20.0668 20.1518 20.2748 20.4267 20.5728 20.6374 
19.0241 19.4554 19.7536 19.9336 20.0251 20.0595 20.0619 20.0501 20.0345 20.0204 20.01 20.0033 19.9995 19.9978 19.9974 19.9976 19.9981 19.9986 19.9991 19.9994 19.9997 19.9999 20 20.0001 20.0002 20.0002 20.0003 20.0003 20.0003 20.0003 20.0003 20.0003 20.0002 20 19.9994 19.9983 19.9963 19.9932 19.9888 19.9834 19.9783 19.9763 19.9822 20.0035 20.0503 20.1335 20.2612 20.4307 20.6157 20.7501 
19.002 19.4049 19.7013 19.8913 19.996 20.042 20.0532 20.0469 20.0344 20.0217 20.0115 20.0046 20.0004 19.9983 19.9975 19.9975 19.9978 19.9983 19.9987 19.9991 19.9994 19.9996 19.9998 20 20.0001 20.0003 20.0004 20.0005 20.0006 20.0007 20.0008 20.0009 20.0009 20.0008 20.0004 19.9995 19.9977 19.9946 19.99 19.9839 19.9774 19.9729 19.9749 19.9912 20.0325 20.1119 20.2412 20.4241 20.6435 20.8443 
19.0044 19.369 19.6562 19.8515 19.9666 20.0233 20.0428 20.0422 20.033 20.022 20.0124 20.0053 20.0008 19.9984 19.9973 19.9971 19.9973 19.9977 19.9981 19.9985 19.9989 19.9993 19.9996 19.9999 20.0002 20.0005 20.0007 20.0009 20.0012 20.0014 20.0016 20.0018 20.002 20.002 20.0018 20.0011 19.9994 19.9964 19.9916 19.985 19.9772 19.9702 19.9683 19.9791 20.0139 20.0874 20.2151 20.407 20.6553 20.9178 
19.0314 19.3484 19.6192 19.8149 19.9376 20.0033 20.0307 20.0358 20.0301 20.021 20.0122 20.0053 20.0006 19.9979 19.9967 19.9963 19.9964 19.9969 19.9974 19.998 19.9985 19.9991 19.9996 20.0001 20.0006 20.0011 20.0015 20.002 20.0023 20.0027 20.003 20.0033 20.0036 20.0037 20.0036 20.003 20.0015 19.9985 19.9936 19.9865 19.9775 19.9681 19.9623 19.9673 19.9947 20.0605 20.1835 20.3797 20.651 20.9686 
19.0822 19.3437 19.5911 19.7822 19.9093 19.9823 20.0167 20.0274 20.0254 20.0184 20.0107 20.0042 19.9997 19.9969 19.9955 19.9952 19.9954 19.996 19.9968 19.9976 19.9985 19.9994 20.0002 20.001 20.0018 20.0026 20.0032 20.0038 20.0043 20.0048 20.0052 20.0055 20.0058 20.0059 20.0058 20.0052 20.0037 20.0008 19.9958 19.9882 19.978 19.9664 19.9567 19.9557 19.975 20.0316 20.147 20.3427 20.6304 20.9956 
19.1557 19.3548 19.5725 19.7539 19.8819 19.9603 20.0009 20.0168 20.0187 20.0142 20.0078 20.0021 19.9979 19.9954 19.9942 19.9941 19.9947 19.9956 19.9968 19.9981 19.9994 20.0007 20.002 20.0032 20.0043 20.0053 20.0062 20.0069 20.0075 20.008 20.0083 20.0085 20.0085 20.0085 20.0081 20.0073 20.0057 20.0026 19.9974 19.9893 19.9781 19.9644 19.9509 19.944 19.9549 20.001 20.106 20.2967 20.594 20.998 
19.2499 19.3812 19.5634 19.7303 19.856 19.9376 19.9834 20.0042 20.0099 20.0082 20.0037 19.9992 19.9958 19.9939 19.9934 19.9938 19.995 19.9966 19.9984 20.0003 20.0022 20.0041 20.0058 20.0074 20.0088 20.01 20.0109 20.0115 20.012 20.0121 20.0121 20.0118 20.0114 20.0108 20.0099 20.0086 20.0065 20.0031 19.9975 19.9889 19.9768 19.9612 19.9444 19.9318 19.9341 19.9688 20.0613 20.2426 20.5426 20.9759 
19.3626 19.4224 19.5641 19.7121 19.8319 19.9147 19.9645 19.9898 19.9997 20.0012 19.9991 19.9964 19.9945 19.9938 19.9943 19.9957 19.9978 20.0003 20.003 20.0056 20.0082 20.0105 20.0126 20.0143 20.0157 20.0167 20.0173 20.0175 20.0173 20.0167 20.0158 20.0146 20.0132 20.0116 20.0097 20.0076 20.0048 20.0008 19.9947 19.9857 19.9728 19.9559 19.9362 19.9185 19.9124 19.9354 20.0135 20.1816 20.4774 20.9298 
19.491 19.4775 19.5748 19.6999 19.8109 19.8929 19.9456 19.9753 19.9895 19.9948 19.9959 19.9957 19.9959 19.997 19.999 20.0019 20.0052 20.0088 20.0123 20.0156 20.0185 20.021 20.023 20.0244 20.0252 20.0254 20.025 20.024 20.0224 20.0203 20.0178 20.0149 20.0119 20.0087 20.0055 20.0021 19.9983 19.9936 19.9872 19.978 19.9648 19.9471 19.9255 19.9036 19.8901 19.9014 19.9641 20.1154 20.4001 20.8607 
19.6319 19.5456 19.5964 19.6957 19.7953 19.8747 19.9296 19.9634 19.9824 19.9921 19.9972 20.0004 20.0034 20.0068 20.0108 20.0152 20.0198 20.0241 20.0281 20.0315 20.0341 20.036 20.0369 20.037 20.0361 20.0343 20.0317 20.0284 20.0244 20.0198 20.0148 20.0096 20.0043 19.9991 19.9941 19.9893 19.9845 19.9793 19.9729 19.9641 19.9517 19.9344 19.9123 19.8879 19.8684 19.8689 19.9153 20.0466 20.3133 20.7705 
19.7819 19.6263 19.6306 19.7027 19.7893 19.865 19.9215 19.9596 19.9836 19.9985 20.0082 20.0153 20.0215 20.0275 20.0333 20.0389 20.044 20.0483 20.0516 20.0537 20.0546 20.0542 20.0524 20.0493 20.045 20.0397 20.0333 20.0262 20.0184 20.0102 20.0019 19.9936 19.9856 19.9783 19.9717 19.9659 19.9608 19.956 19.9507 19.9438 19.9336 19.9188 19.8984 19.8738 19.8505 19.8417 19.8717 19.9796 20.2206 20.6613 
19.9372 19.7202 19.6811 19.7268 19.8002 19.8716 19.9295 19.9718 20.0012 20.0214 20.0359 20.0469 20.0559 20.0636 20.0701 20.0754 20.0792 20.0813 20.0816 20.08 20.0765 20.0711 20.064 20.0554 20.0453 20.0342 20.0222 20.0097 19.997 19.9843 19.9722 19.9608 19.9506 19.9419 19.9348 19.9294 19.9258 19.9234 19.9216 19.919 19.914 19.9046 19.8891 19.8675 19.8435 19.8274 19.841 19.922 20.1279 20.5358 
20.0941 19.829 19.7543 19.7774 19.8389 19.9065 19.9653 20.0114 20.0454 20.0701 20.0881 20.1014 20.1111 20.1181 20.1224 20.124 20.1229 20.119 20.1124 20.103 20.0912 20.0772 20.0613 20.0439 20.0254 20.0063 19.987 19.9681 19.95 19.9331 19.918 19.905 19.8945 19.8868 19.8821 19.8806 19.8819 19.8858 19.8914 19.8971 19.9012 19.9013 19.8949 19.8805 19.8596 19.8391 19.8364 19.8856 20.0439 20.3971 
20.2487 19.9571 19.8605 19.8683 19.921 19.985 20.0438 20.0915 20.1276 20.1535 20.1713 20.1825 20.1883 20.1891 20.1855 20.1776 20.1655 20.1496 20.1301 20.1075 20.0823 20.0551 20.0266 19.9974 19.9683 19.94 19.9131 19.8884 19.8665 19.8479 19.8331 19.8225 19.8164 19.815 19.8184 19.8265 19.8389 19.8549 19.8736 19.8933 19.9118 19.9263 19.9338 19.9313 19.9177 19.896 19.8775 19.8889 19.9823 20.2487 
20.3971 20.1124 20.0148 20.0179 20.0654 20.1248 20.1799 20.224 20.2557 20.2757 20.2853 20.286 20.2787 20.2644 20.2436 20.217 20.1852 20.149 20.1093 20.067 20.023 19.9785 19.9345 19.8921 19.8525 19.8164 19.7849 19.7586 19.7384 19.7246 19.7176 19.7177 19.7248 19.7388 19.7595 19.7863 19.8184 19.8548 19.8939 19.934 19.9725 20.0064 20.0319 20.0451 20.0426 20.0231 19.9901 19.9582 19.9648 20.0941 
20.5358 20.3079 20.2372 20.2473 20.2907 20.3404 20.3828 20.4122 20.4269 20.4274 20.415 20.3909 20.3565 20.3132 20.2622 20.2048 20.1425 20.0768 20.0093 19.9416 19.8754 19.8123 19.7538 19.7013 19.6562 19.6196 19.5923 19.5751 19.5684 19.5723 19.5868 19.6115 19.6458 19.689 19.74 19.7975 19.86 19.9259 19.9931 20.0592 20.1215 20.1768 20.2212 20.2506 20.2602 20.2452 20.2014 20.1268 20.028 19.9372 
20.6613 20.566 20.551 20.574 20.6064 20.6324 20.644 20.6382 20.6146 20.5739 20.5179 20.4484 20.3675 20.2774 20.1805 20.0792 19.976 19.8735 19.7741 19.6803 19.5944 19.5185 19.4544 19.4038 19.3679 19.3475 19.3432 19.3551 19.3828 19.4258 19.4829 19.5528 19.6337 19.7237 19.8206 19.922 20.0253 20.1279 20.2272 20.3201 20.404 20.4757 20.532 20.5696 20.5845 20.5718 20.5239 20.4256 20.24 19.7819 
20.7705 20.9298 20.9759 20.998 20.9956 20.9686 20.9178 20.8443 20.7501 20.6374 20.509 20.3681 20.2181 20.0628 19.9059 19.7513 19.6029 19.4642 19.3387 19.2295 19.1393 19.0702 19.0241 19.002 19.0044 19.0314 19.0822 19.1557 19.2499 19.3626 19.491 19.6319 19.7819 19.9372 20.0941 20.2487 20.3971 20.5358 20.6613 20.7705 20.8607 20.9298 20.9759 20.998 20.9956 20.9686 20.9178 20.8443 20.7501 19.6319 
