# vtk DataFile Version 3.0
Temperature distribution on a 2D grid
ASCII

DATASET STRUCTURED_POINTS
DIMENSIONS 50 50 1
ORIGIN 0.0 0.0 0.0
SPACING 0.01 0.01 1.0

POINT_DATA 2500
SCALARS temperature double
LOOKUP_TABLE default
19.191 20.891 20.9511 20.9877 21 20.9877 20.9511 20.891 20.809 20.7071 20.5878 20.454 20.309 20.1564 20 19.8436 19.691 19.546 19.4122 19.2929 19.191 19.109 19.0489 19.0123 19 19.0123 19.0489 19.109 19.191 19.2929 19.4122 19.546 19.691 19.8436 20 20.1564 20.309 20.454 20.5878 20.7071 20.809 20.891 20.9511 20.9877 21 20.9877 20.9511 20.891 20.809 20.5878 
19.2929 20.0773 20.359 20.484 20.529 20.5258 20.49 20.431 20.3548 20.2663 20.1695 20.0678 19.9641 19.8613 19.7621 19.6689 19.584 19.5094 19.447 19.3983 19.3643 19.3461 19.3439 19.3579 19.3878 19.4327 19.4915 19.5629 19.6451 19.736 19.8334 19.9349 20.0381 20.1403 20.2392 20.3322 20.4172 20.4919 20.5545 20.6031 20.6363 20.6526 20.6508 20.6301 20.5911 20.5364 20.473 20.4163 20.3955 20.454 
19.4122 19.7488 19.9762 20.1116 20.1778 20.195 20.1783 20.1387 20.0845 20.0218 19.9552 19.8883 19.8236 19.7633 19.7091 19.6624 19.6242 19.5955 19.5768 19.5687 19.5712 19.5844 19.6077 19.6407 19.6826 19.7323 19.7886 19.8501 19.9153 19.9826 20.0503 20.1168 20.1805 20.2399 20.2934 20.3398 20.3781 20.4072 20.4262 20.4342 20.4303 20.4135 20.3825 20.3365 20.2762 20.2056 20.136 20.0925 20.1226 20.309 
19.546 19.6347 19.7692 19.8819 19.9551 19.9903 19.9953 19.9791 19.9494 19.9127 19.8736 19.8355 19.8008 19.771 19.7472 19.73 19.7198 19.7168 19.721 19.7321 19.7499 19.7739 19.8035 19.8379 19.8763 19.9178 19.9613 20.0058 20.0501 20.0932 20.134 20.1716 20.205 20.2335 20.2564 20.2732 20.2835 20.2871 20.2836 20.2725 20.253 20.224 20.1837 20.1307 20.0647 19.9897 19.9183 19.8796 19.9283 20.1564 
19.691 19.6271 19.6807 19.7631 19.8345 19.8817 19.9048 19.9089 19.9001 19.8843 19.866 19.8484 19.8336 19.8228 19.8168 19.8157 19.8196 19.8283 19.8415 19.8587 19.8794 19.9032 19.9294 19.9573 19.9862 20.0156 20.0445 20.0724 20.0985 20.1222 20.1429 20.1601 20.1735 20.1827 20.1877 20.1883 20.1846 20.1768 20.1646 20.1478 20.1255 20.096 20.057 20.0058 19.941 19.8649 19.7893 19.743 19.7821 20 
19.8436 19.676 19.6653 19.7179 19.7825 19.836 19.8717 19.8906 19.8972 19.8962 19.8917 19.8869 19.8836 19.883 19.8856 19.8916 19.9007 19.9126 19.9269 19.9431 19.9609 19.9797 19.999 20.0183 20.0372 20.0552 20.0719 20.0868 20.0995 20.1099 20.1175 20.1223 20.1242 20.1232 20.1194 20.1131 20.1044 20.0936 20.0807 20.0654 20.0465 20.022 19.9888 19.943 19.8814 19.8044 19.7209 19.6572 19.6672 19.8436 
20 19.7557 19.6924 19.7166 19.771 19.8258 19.8687 19.8973 19.9139 19.9222 19.9261 19.9282 19.9306 19.9343 19.9399 19.9475 19.9568 19.9676 19.9794 19.992 20.0048 20.0176 20.03 20.0416 20.0522 20.0616 20.0694 20.0756 20.0799 20.0823 20.0827 20.081 20.0775 20.0723 20.0655 20.0576 20.0488 20.0394 20.0295 20.0187 20.0055 19.9878 19.9616 19.922 19.864 19.7852 19.6915 19.6046 19.5745 19.691 
20.1564 19.8515 19.7429 19.7395 19.7809 19.8327 19.8782 19.9121 19.9345 19.9483 19.9565 19.9619 19.9664 19.9711 19.9767 19.9832 19.9906 19.9986 20.0069 20.0153 20.0233 20.0309 20.0378 20.0437 20.0486 20.0522 20.0546 20.0557 20.0554 20.0538 20.0509 20.0468 20.0416 20.0355 20.0289 20.0221 20.0154 20.0091 20.0032 19.9974 19.9902 19.979 19.9596 19.9259 19.8713 19.7907 19.6861 19.5741 19.4991 19.546 
20.309 19.9548 19.8056 19.7746 19.8006 19.8459 19.8905 19.9263 19.9516 19.9681 19.9784 19.9849 19.9897 19.9939 19.9981 20.0027 20.0077 20.0128 20.0179 20.0227 20.0271 20.0309 20.0339 20.0362 20.0376 20.038 20.0376 20.0362 20.0339 20.0309 20.0271 20.0226 20.0177 20.0125 20.0074 20.0025 19.9984 19.9953 19.9932 19.9917 19.9896 19.9841 19.9706 19.9424 19.8913 19.8097 19.6952 19.5592 19.4387 19.4122 
20.454 20.0601 19.874 19.8155 19.8242 19.8603 19.9013 19.9366 19.9628 19.9804 19.9915 19.9983 20.0026 20.0057 20.0085 20.0112 20.014 20.0167 20.0194 20.0217 20.0236 20.025 20.0259 20.0261 20.0257 20.0247 20.023 20.0208 20.0182 20.015 20.0116 20.0078 20.004 20.0002 19.9967 19.9938 19.992 19.9913 19.9922 19.9941 19.996 19.9951 19.9867 19.9637 19.9165 19.8353 19.7134 19.5561 19.3927 19.2929 
20.5878 20.1634 19.9446 19.8591 19.8492 19.8742 19.9096 19.9427 19.9685 19.9863 19.9976 20.0042 20.008 20.0102 20.0118 20.0131 20.0143 20.0154 20.0164 20.0172 20.0177 20.0179 20.0176 20.0169 20.0158 20.0144 20.0126 20.0105 20.0081 20.0056 20.0029 20.0001 19.9975 19.995 19.9929 19.9916 19.9913 19.9924 19.9952 19.9995 20.0043 20.0071 20.0033 19.9854 19.943 19.8639 19.7378 19.5633 19.3613 19.191 
20.7071 20.2621 20.015 19.904 19.8749 19.8875 19.9159 19.9456 19.97 19.9876 19.9988 20.0054 20.0088 20.0105 20.0112 20.0116 20.0118 20.012 20.0122 20.0121 20.012 20.0116 20.0109 20.01 20.0089 20.0075 20.006 20.0043 20.0026 20.0008 19.9989 19.9971 19.9954 19.9939 19.9928 19.9924 19.9931 19.9952 19.9991 20.0049 20.0118 20.0176 20.018 20.0053 19.9686 19.8937 19.7667 19.58 19.3449 19.109 
20.809 20.3537 20.0839 19.9494 19.9013 19.9008 19.9212 19.9466 19.9692 19.9861 19.9973 20.0039 20.0072 20.0086 20.009 20.0089 20.0087 20.0084 20.0081 20.0078 20.0074 20.0069 20.0062 20.0054 20.0045 20.0035 20.0024 20.0013 20.0001 19.9989 19.9977 19.9966 19.9956 19.9947 19.9942 19.9943 19.9954 19.9979 20.0024 20.0091 20.0174 20.0257 20.0299 20.0226 19.9925 19.924 19.7996 19.6056 19.344 19.0489 
20.891 20.4361 20.1497 19.9947 19.9286 19.9148 19.9266 19.9472 19.9674 19.9834 19.9945 20.0011 20.0046 20.0061 20.0064 20.0062 20.0058 20.0054 20.005 20.0046 20.0042 20.0038 20.0033 20.0028 20.0022 20.0015 20.0008 20.0001 19.9994 19.9987 19.998 19.9973 19.9967 19.9962 19.9959 19.9961 19.9973 19.9999 20.0044 20.0115 20.0208 20.0312 20.039 20.0374 20.0147 19.9543 19.8359 19.64 19.3587 19.0123 
20.9511 20.5075 20.2114 20.0394 19.9568 19.9299 19.9328 19.9481 19.9656 19.9805 19.9913 19.9981 20.0019 20.0035 20.004 20.0039 20.0035 20.0031 20.0028 20.0025 20.0022 20.002 20.0017 20.0014 20.0011 20.0007 20.0004 20 19.9996 19.9992 19.9988 19.9984 19.9979 19.9975 19.9973 19.9974 19.9984 20.0008 20.0052 20.0122 20.0223 20.0344 20.0456 20.0496 20.035 19.9845 19.8753 19.6825 19.3888 19 
20.9877 20.5662 20.2675 20.0828 19.9855 19.9463 19.9402 19.9499 19.9643 19.9779 19.9883 19.9953 19.9993 20.0013 20.0021 20.0021 20.0019 20.0017 20.0014 20.0012 20.0011 20.001 20.0009 20.0008 20.0007 20.0006 20.0004 20.0003 20.0001 19.9999 19.9996 19.9993 19.9989 19.9985 19.9982 19.9981 19.9988 20.0008 20.0048 20.0117 20.0221 20.0357 20.05 20.0596 20.0536 20.0143 19.917 19.7323 19.4337 19.0123 
21 20.6109 20.317 20.124 20.0145 19.9638 19.949 19.9529 19.964 19.976 19.9859 19.9929 19.9972 19.9995 20.0006 20.0009 20.0009 20.0007 20.0006 20.0006 20.0005 20.0006 20.0006 20.0006 20.0007 20.0007 20.0006 20.0006 20.0005 20.0004 20.0002 19.9999 19.9995 19.9991 19.9986 19.9983 19.9986 20.0001 20.0037 20.0102 20.0208 20.0354 20.0526 20.0676 20.0703 20.0432 19.9605 19.7885 19.4925 19.0489 
20.9877 20.6406 20.3586 20.162 20.0431 19.9822 19.9591 19.9571 19.9647 19.9748 19.984 19.9909 19.9955 19.9981 19.9995 20 20.0002 20.0002 20.0002 20.0002 20.0003 20.0004 20.0005 20.0006 20.0007 20.0008 20.0008 20.0008 20.0008 20.0007 20.0005 20.0002 19.9998 19.9993 19.9987 19.9982 19.9981 19.9991 20.002 20.0081 20.0185 20.0339 20.0536 20.0736 20.085 20.0709 20.0047 19.8498 19.5636 19.109 
20.9511 20.6545 20.3914 20.1962 20.0706 20.0012 19.9703 19.9626 19.9664 19.9744 19.9827 19.9894 19.9941 19.997 19.9986 19.9994 19.9997 19.9998 19.9999 20 20.0001 20.0003 20.0004 20.0006 20.0007 20.0008 20.0009 20.0009 20.0009 20.0008 20.0006 20.0003 19.9999 19.9993 19.9985 19.9978 19.9973 19.9978 20.0002 20.0056 20.0157 20.0315 20.0531 20.0777 20.0975 20.0968 20.0488 19.9147 19.6456 19.191 
20.891 20.6523 20.4146 20.2255 20.0965 20.0201 19.9823 19.969 19.969 19.9748 19.982 19.9883 19.993 19.9961 19.9979 19.9989 19.9993 19.9996 19.9997 19.9999 20 20.0002 20.0003 20.0005 20.0006 20.0007 20.0008 20.0008 20.0008 20.0007 20.0006 20.0003 19.9998 19.9991 19.9983 19.9973 19.9966 19.9965 19.9982 20.0029 20.0124 20.0282 20.0513 20.0799 20.1076 20.1202 20.0917 19.9818 19.7362 19.2929 
20.809 20.634 20.4275 20.2493 20.12 20.0386 19.9948 19.9763 19.9725 19.9759 19.9818 19.9875 19.9921 19.9953 19.9973 19.9984 19.9991 19.9994 19.9996 19.9997 19.9999 20.0001 20.0002 20.0004 20.0005 20.0006 20.0007 20.0007 20.0007 20.0006 20.0004 20.0001 19.9997 19.999 19.998 19.9969 19.9958 19.9953 19.9963 20.0001 20.0088 20.0243 20.0482 20.0801 20.1151 20.1408 20.1323 20.0493 19.8333 19.4122 
20.7071 20.6001 20.43 20.2669 20.1406 20.0562 20.0074 19.9841 19.9767 19.9776 19.9821 19.9871 19.9915 19.9947 19.9968 19.9981 19.9988 19.9992 19.9995 19.9996 19.9998 20 20.0001 20.0003 20.0004 20.0005 20.0005 20.0005 20.0005 20.0004 20.0002 20 19.9995 19.9988 19.9978 19.9965 19.9952 19.9942 19.9944 19.9974 20.005 20.0198 20.044 20.0783 20.1198 20.1579 20.1697 20.1156 19.9346 19.546 
20.5878 20.5515 20.4219 20.278 20.1577 20.0724 20.0199 19.9924 19.9814 19.9799 19.9828 19.987 19.991 19.9942 19.9964 19.9977 19.9986 19.999 19.9993 19.9995 19.9997 19.9999 20 20.0001 20.0002 20.0003 20.0003 20.0003 20.0003 20.0002 20.0001 19.9998 19.9993 19.9986 19.9976 19.9962 19.9946 19.9932 19.9928 19.9947 20.0011 20.0148 20.0387 20.0747 20.1216 20.1711 20.203 20.179 20.0374 19.691 
20.454 20.4893 20.4034 20.2822 20.1709 20.0868 20.0318 20.0008 19.9866 19.9826 19.9839 19.9872 19.9908 19.9938 19.996 19.9975 19.9984 19.9989 19.9992 19.9995 19.9996 19.9998 19.9999 20 20.0001 20.0002 20.0002 20.0002 20.0002 20.0001 19.9999 19.9997 19.9992 19.9985 19.9975 19.9961 19.9943 19.9924 19.9913 19.9921 19.9972 20.0094 20.0324 20.0692 20.1203 20.1801 20.2312 20.2381 20.1394 19.8436 
20.309 20.415 20.3749 20.2795 20.1799 20.099 20.0429 20.0092 19.9921 19.9857 19.9854 19.9877 19.9908 19.9936 19.9957 19.9972 19.9982 19.9988 19.9992 19.9994 19.9996 19.9997 19.9999 20 20 20.0001 20.0001 20.0001 20 20 19.9998 19.9996 19.9992 19.9985 19.9975 19.996 19.994 19.9918 19.99 19.9898 19.9933 20.0038 20.0254 20.0621 20.1161 20.1847 20.2538 20.2913 20.2379 20 
20.1564 20.3305 20.3372 20.2699 20.1844 20.1088 20.053 20.0173 19.9977 19.9892 19.9872 19.9884 19.9909 19.9935 19.9956 19.9971 19.9981 19.9988 19.9992 19.9994 19.9996 19.9997 19.9998 19.9999 20 20 20 20 20 19.9999 19.9998 19.9995 19.9992 19.9986 19.9976 19.9961 19.994 19.9914 19.9889 19.9876 19.9896 19.9982 20.0177 20.0533 20.1091 20.1847 20.2701 20.3373 20.3305 20.1564 
20 20.2378 20.2912 20.2536 20.1844 20.1158 20.0617 20.025 20.0034 19.9928 19.9893 19.9895 19.9913 19.9935 19.9955 19.997 19.998 19.9987 19.9992 19.9995 19.9997 19.9998 19.9999 20 20 20 20 20 19.9999 19.9999 19.9997 19.9995 19.9992 19.9987 19.9977 19.9962 19.9941 19.9912 19.9882 19.9858 19.9862 19.9925 20.0096 20.0433 20.0993 20.1801 20.2797 20.375 20.415 20.309 
19.8436 20.1393 20.238 20.231 20.1798 20.12 20.0689 20.032 20.009 19.9967 19.9916 19.9907 19.9919 19.9937 19.9955 19.997 19.9981 19.9988 19.9992 19.9995 19.9998 19.9999 20 20.0001 20.0001 20.0001 20.0001 20 20 19.9999 19.9998 19.9996 19.9993 19.9988 19.9979 19.9965 19.9943 19.9913 19.9877 19.9843 19.983 19.987 20.0012 20.0321 20.0871 20.1711 20.2824 20.4035 20.4893 20.454 
19.691 20.0374 20.1789 20.2028 20.1708 20.1213 20.0743 20.0383 20.0143 20.0006 19.9942 19.9922 19.9927 19.9941 19.9957 19.9971 19.9981 19.9989 19.9994 19.9997 19.9999 20 20.0001 20.0002 20.0002 20.0002 20.0002 20.0001 20 19.9999 19.9998 19.9996 19.9994 19.999 19.9982 19.9968 19.9946 19.9915 19.9875 19.9832 19.9803 19.9818 19.9928 20.0202 20.0727 20.1579 20.2782 20.422 20.5516 20.5878 
19.546 19.9345 20.1154 20.1696 20.1576 20.1195 20.078 20.0436 20.0193 20.0045 19.9968 19.9939 19.9936 19.9946 19.9959 19.9972 19.9982 19.999 19.9995 19.9998 20 20.0002 20.0002 20.0003 20.0003 20.0003 20.0002 20.0002 20.0001 20 19.9998 19.9997 19.9995 19.9991 19.9984 19.9972 19.9951 19.9919 19.9876 19.9825 19.9781 19.9771 19.9845 20.0078 20.0565 20.1408 20.2671 20.4301 20.6002 20.7071 
19.4122 19.8333 20.0492 20.1322 20.1406 20.1149 20.0798 20.0478 20.0239 20.0083 19.9996 19.9957 19.9947 19.9952 19.9963 19.9974 19.9984 19.9991 19.9996 19.9999 20.0001 20.0003 20.0003 20.0004 20.0004 20.0003 20.0003 20.0002 20.0001 20 19.9999 19.9998 19.9996 19.9994 19.9988 19.9977 19.9957 19.9926 19.988 19.9822 19.9764 19.9729 19.9767 19.9952 20.039 20.1203 20.2495 20.4277 20.6341 20.809 
19.2929 19.7361 19.9817 20.0916 20.1201 20.1074 20.0796 20.0509 20.0278 20.0119 20.0024 19.9977 19.996 19.9959 19.9967 19.9976 19.9985 19.9991 19.9996 19.9999 20.0002 20.0003 20.0004 20.0004 20.0004 20.0003 20.0003 20.0002 20.0001 20 20 19.9999 19.9998 19.9996 19.9992 19.9983 19.9965 19.9935 19.9888 19.9825 19.9754 19.9695 19.9695 19.9828 20.0205 20.0968 20.2257 20.4147 20.6524 20.891 
19.191 19.6455 19.9146 20.0487 20.0966 20.0973 20.0774 20.0528 20.0311 20.0152 20.0051 19.9996 19.9972 19.9966 19.997 19.9977 19.9985 19.9991 19.9995 19.9998 20 20.0002 20.0002 20.0003 20.0003 20.0003 20.0002 20.0002 20.0001 20.0001 20.0001 20.0001 20.0001 20 19.9998 19.9991 19.9975 19.9947 19.99 19.9834 19.9751 19.967 19.9631 19.9709 20.0016 20.071 20.1964 20.3916 20.6546 20.9511 
19.109 19.5636 19.8497 20.0046 20.0708 20.0848 20.0733 20.0532 20.0335 20.018 20.0075 20.0013 19.9983 19.9972 19.9972 19.9976 19.9982 19.9987 19.9992 19.9995 19.9997 19.9998 19.9999 20 20.0001 20.0001 20.0002 20.0002 20.0002 20.0002 20.0003 20.0004 20.0005 20.0006 20.0006 20.0001 19.9989 19.9963 19.9918 19.9848 19.9756 19.9655 19.9579 19.9598 19.9828 20.0435 20.1624 20.3588 20.6407 20.9877 
19.0489 19.4924 19.7884 19.9603 20.043 20.0699 20.0672 20.0521 20.0348 20.02 20.0093 20.0026 19.999 19.9974 19.997 19.9972 19.9976 19.9981 19.9985 19.9988 19.9991 19.9993 19.9995 19.9997 19.9999 20 20.0002 20.0003 20.0005 20.0006 20.0008 20.0011 20.0013 20.0016 20.0018 20.0016 20.0006 19.9983 19.994 19.987 19.977 19.965 19.9538 19.9498 19.9644 20.015 20.1243 20.3172 20.611 21 
19.0123 19.4336 19.732 19.9166 20.0137 20.0529 20.0588 20.0491 20.0346 20.0209 20.0103 20.0033 19.9991 19.9971 19.9963 19.9963 19.9966 19.997 19.9974 19.9979 19.9983 19.9986 19.999 19.9994 19.9998 20.0002 20.0005 20.0009 20.0012 20.0016 20.0019 20.0023 20.0027 20.0032 20.0035 20.0035 20.0028 20.0009 19.9968 19.9897 19.9792 19.9654 19.9508 19.941 19.9468 19.9859 20.0831 20.2677 20.5663 20.9877 
19 19.3885 19.6818 19.8744 19.9834 20.0336 20.048 20.0439 20.0325 20.0202 20.01 20.0028 19.9983 19.9959 19.9949 19.9947 19.995 19.9956 19.9962 19.9968 19.9975 19.9981 19.9988 19.9995 20.0002 20.0009 20.0016 20.0022 20.0028 20.0033 20.0039 20.0044 20.0049 20.0054 20.0059 20.006 20.0055 20.0038 19.9999 19.9929 19.9818 19.9666 19.9489 19.9333 19.9302 19.9569 20.0394 20.2113 20.5074 20.9511 
19.0123 19.3581 19.6388 19.8342 19.9521 20.0121 20.0345 20.036 20.028 20.0175 20.008 20.001 19.9964 19.9939 19.9928 19.9927 19.9932 19.994 19.995 19.9961 19.9972 19.9984 19.9995 20.0007 20.0018 20.0029 20.0039 20.0049 20.0057 20.0064 20.007 20.0076 20.0081 20.0085 20.0089 20.009 20.0085 20.0068 20.003 19.9959 19.9845 19.968 19.9473 19.9264 19.9144 19.928 19.9941 20.1492 20.4358 20.891 
19.0489 19.3429 19.6035 19.7965 19.9202 19.9882 20.0179 20.0249 20.0206 20.0123 20.0041 19.9976 19.9934 19.9911 19.9904 19.9907 19.9917 19.9931 19.9948 19.9965 19.9984 20.0002 20.002 20.0038 20.0054 20.0069 20.0083 20.0094 20.0104 20.0111 20.0116 20.0119 20.0121 20.0122 20.0122 20.0119 20.011 20.0091 20.0051 19.9979 19.9861 19.9685 19.9454 19.9195 19.8989 19.8994 19.9476 20.0826 20.353 20.809 
19.109 19.3431 19.5765 19.7618 19.8877 19.9618 19.9981 20.0106 20.0103 20.0048 19.9984 19.9931 19.9898 19.9884 19.9886 19.9898 19.9918 19.9942 19.9968 19.9996 20.0023 20.005 20.0076 20.0099 20.012 20.0138 20.0153 20.0164 20.0171 20.0174 20.0174 20.017 20.0164 20.0156 20.0147 20.0135 20.0119 20.0093 20.0049 19.9974 19.9852 19.9668 19.9417 19.9116 19.8831 19.8708 19.9005 20.0126 20.2608 20.7071 
19.191 19.3587 19.5583 19.7307 19.8553 19.9334 19.9754 19.9933 19.9977 19.9957 19.9919 19.9888 19.9874 19.9876 19.9893 19.9921 19.9955 19.9994 20.0034 20.0073 20.0111 20.0145 20.0176 20.0203 20.0225 20.0241 20.0252 20.0256 20.0254 20.0246 20.0233 20.0215 20.0194 20.017 20.0145 20.0119 20.0089 20.0053 20.0002 19.9922 19.9798 19.961 19.9346 19.9014 19.8663 19.8421 19.8534 19.9406 20.1614 20.5878 
19.2929 19.3893 19.5496 19.7043 19.8242 19.9045 19.9515 19.9751 19.9847 19.9873 19.9874 19.9876 19.989 19.9918 19.9959 20.0008 20.0062 20.0117 20.0171 20.0221 20.0266 20.0304 20.0335 20.0357 20.0371 20.0375 20.0371 20.0357 20.0335 20.0304 20.0267 20.0225 20.0179 20.0131 20.0083 20.0035 19.9989 19.9939 19.988 19.9798 19.9676 19.9492 19.9228 19.8879 19.8481 19.8138 19.8076 19.8688 20.0575 20.454 
19.4122 19.435 19.552 19.6853 19.7978 19.8787 19.9303 19.96 19.9759 19.9843 19.9896 19.9944 19.9998 20.0061 20.0131 20.0205 20.0278 20.0348 20.041 20.0463 20.0504 20.0534 20.055 20.0553 20.0542 20.0518 20.0481 20.0432 20.0373 20.0305 20.023 20.0151 20.0069 19.9989 19.9912 19.9841 19.9776 19.9716 19.9653 19.9576 19.9467 19.9303 19.9058 19.8717 19.8298 19.7879 19.7658 19.8005 19.9527 20.309 
19.546 19.4965 19.569 19.6788 19.7823 19.863 19.9192 19.9557 19.979 19.9945 20.0063 20.0167 20.0268 20.0369 20.0468 20.0561 20.0645 20.0715 20.077 20.0806 20.0822 20.0819 20.0795 20.0752 20.0691 20.0612 20.0518 20.0412 20.0296 20.0172 20.0045 19.9918 19.9795 19.9679 19.9575 19.9485 19.9411 19.9351 19.93 19.9248 19.9175 19.9055 19.886 19.8562 19.8158 19.77 19.7343 19.7421 19.8523 20.1564 
19.691 19.5761 19.6069 19.694 19.7885 19.869 19.9302 19.9743 20.0059 20.0294 20.0482 20.0643 20.0787 20.0915 20.1026 20.1118 20.1185 20.1226 20.1237 20.1219 20.1172 20.1095 20.0992 20.0864 20.0715 20.0549 20.0369 20.018 19.9987 19.9794 19.9607 19.943 19.9269 19.9129 19.9013 19.8926 19.8868 19.8839 19.8834 19.8842 19.8844 19.8811 19.8709 19.8502 19.8163 19.7711 19.7248 19.7047 19.7653 20 
19.8436 19.6789 19.6771 19.7462 19.8336 19.9148 19.9813 20.0329 20.0725 20.1032 20.1276 20.1474 20.1631 20.1751 20.1832 20.1872 20.1869 20.1822 20.1731 20.1598 20.1426 20.1219 20.0982 20.0721 20.0442 20.0153 19.986 19.957 19.9291 19.9029 19.8792 19.8586 19.8415 19.8286 19.8202 19.8166 19.8179 19.8238 19.8337 19.8464 19.8599 19.8713 19.8764 19.8708 19.8496 19.8107 19.7577 19.7081 19.7064 19.8436 
20 19.8148 19.7982 19.8582 19.9422 20.0246 20.0952 20.1521 20.1965 20.2302 20.2552 20.2724 20.2826 20.2859 20.2825 20.2724 20.2558 20.2331 20.2047 20.1714 20.1338 20.093 20.0499 20.0055 19.9611 19.9176 19.8761 19.8377 19.8033 19.7737 19.7497 19.732 19.721 19.717 19.7203 19.7307 19.7481 19.7719 19.801 19.8341 19.8688 19.9021 19.9295 19.9456 19.9441 19.9184 19.8642 19.7845 19.7027 19.691 
20.1564 20.0021 19.9984 20.0616 20.1453 20.2267 20.2964 20.3513 20.3915 20.418 20.432 20.4343 20.4256 20.4064 20.3774 20.3393 20.293 20.2396 20.1803 20.1167 20.0502 19.9824 19.9151 19.8499 19.7884 19.7321 19.6825 19.6406 19.6076 19.5842 19.5711 19.5687 19.5769 19.5957 19.6245 19.6629 19.7098 19.764 19.8239 19.8874 19.952 20.0142 20.0698 20.1131 20.137 20.132 20.086 19.9831 19.8062 19.546 
20.309 20.2755 20.3182 20.3943 20.4751 20.5461 20.6011 20.6376 20.6554 20.655 20.6372 20.6032 20.5542 20.4915 20.4168 20.3319 20.239 20.1402 20.038 19.9348 19.8333 19.7359 19.645 19.5628 19.4915 19.4326 19.3877 19.3579 19.3439 19.346 19.3643 19.3982 19.447 19.5095 19.5842 19.6692 19.7625 19.8617 19.9642 20.0673 20.1678 20.2623 20.3469 20.4168 20.4661 20.4864 20.4636 20.3685 20.1294 19.4122 
20.454 20.7071 20.809 20.891 20.9511 20.9877 21 20.9877 20.9511 20.891 20.809 20.7071 20.5878 20.454 20.309 20.1564 20 19.8436 19.691 19.546 19.4122 19.2929 19.191 19.109 19.0489 19.0123 19 19.0123 19.0489 19.109 19.191 19.2929 19.4122 19.546 19.691 19.8436 20 20.1564 20.309 20.454 20.5878 20.7071 20.809 20.891 20.9511 20.9877 21 20.9877 20.9511 19.2929 
