# vtk DataFile Version 3.0
Temperature distribution on a 2D grid
ASCII

DATASET STRUCTURED_POINTS
DIMENSIONS 50 50 1
ORIGIN 0.0 0.0 0.0
SPACING 0.01 0.01 1.0

POINT_DATA 2500
SCALARS temperature double
LOOKUP_TABLE default
20.309 19.546 19.4122 19.2929 19.191 19.109 19.0489 19.0123 19 19.0123 19.0489 19.109 19.191 19.2929 19.4122 19.546 19.691 19.8436 20 20.1564 20.309 20.454 20.5878 20.7071 20.809 20.891 20.9511 20.9877 21 20.9877 20.9511 20.891 20.809 20.7071 20.5878 20.454 20.309 20.1564 20 19.8436 19.691 19.546 19.4122 19.2929 19.191 19.109 19.0489 19.0123 19 19.0489 
20.1564 19.8287 19.6511 19.5295 19.4471 19.3962 19.3725 19.3727 19.3943 19.4346 19.4911 19.5616 19.6436 19.7347 19.8324 19.9343 20.0377 20.1401 20.239 20.332 20.4168 20.4913 20.5537 20.6025 20.6365 20.6547 20.6569 20.6429 20.6131 20.5682 20.5093 20.4378 20.3556 20.2645 20.167 20.0652 19.9619 19.8596 19.761 19.6687 19.5854 19.5134 19.4547 19.4106 19.3803 19.3606 19.3435 19.3139 19.2475 19.109 
20 19.9562 19.8638 19.7761 19.711 19.6725 19.6592 19.6679 19.6948 19.7359 19.7878 19.8476 19.9125 19.9801 20.0485 20.1156 20.1798 20.2394 20.2931 20.3394 20.3774 20.406 20.4246 20.4328 20.4303 20.4173 20.394 20.3609 20.3191 20.2693 20.213 20.1513 20.086 20.0184 19.9504 19.8835 19.8195 19.76 19.7069 19.6618 19.6267 19.603 19.5919 19.5932 19.6042 19.6172 19.6169 19.5763 19.4538 19.191 
19.8436 19.9898 19.9994 19.9607 19.9163 19.8842 19.8702 19.8741 19.8928 19.9227 19.9603 20.0023 20.0461 20.0897 20.1314 20.1698 20.2039 20.2329 20.2559 20.2726 20.2825 20.2853 20.2812 20.2701 20.2524 20.2285 20.199 20.1646 20.1261 20.0846 20.041 19.9963 19.9518 19.9083 19.867 19.8288 19.7949 19.7662 19.7437 19.7288 19.7229 19.7271 19.7424 19.7681 19.8006 19.8301 19.8368 19.7867 19.6282 19.2929 
19.691 19.9649 20.0614 20.0712 20.0485 20.022 20.0043 19.9992 20.0059 20.0217 20.0435 20.0683 20.0937 20.1179 20.1396 20.1579 20.1721 20.1819 20.1871 20.1875 20.1832 20.1744 20.1613 20.1442 20.1235 20.0999 20.0738 20.0459 20.0169 19.9875 19.9584 19.9303 19.9039 19.8798 19.8584 19.8405 19.8264 19.8167 19.8121 19.8137 19.8226 19.8403 19.8678 19.9049 19.9479 19.9865 19.9994 19.9491 19.7787 19.4122 
19.546 19.9044 20.0676 20.1195 20.1179 20.0975 20.0769 20.0636 20.0593 20.0626 20.0712 20.0824 20.0942 20.105 20.1137 20.1197 20.1226 20.1223 20.1188 20.1122 20.1027 20.0907 20.0764 20.0602 20.0426 20.024 20.0047 19.9854 19.9665 19.9484 19.9316 19.9165 19.9034 19.8925 19.8841 19.8783 19.8755 19.8757 19.8797 19.8883 19.9027 19.9248 19.9562 19.9973 20.0453 20.0909 20.1129 20.0731 19.9115 19.546 
19.4122 19.8245 20.037 20.1238 20.1417 20.1289 20.1076 20.0888 20.0764 20.0705 20.0695 20.0714 20.0745 20.0771 20.0786 20.0782 20.0757 20.0713 20.0648 20.0566 20.047 20.0361 20.0243 20.0119 19.9992 19.9866 19.9743 19.9627 19.952 19.9426 19.9346 19.9281 19.9234 19.9204 19.9192 19.9197 19.922 19.9262 19.9327 19.9426 19.9572 19.9787 20.0094 20.0509 20.1017 20.1541 20.1888 20.1683 20.0315 19.691 
19.2929 19.7367 19.9849 20.1003 20.1366 20.1327 20.1133 20.0919 20.0746 20.0628 20.0558 20.0522 20.0502 20.0486 20.0467 20.0437 20.0397 20.0345 20.0283 20.0212 20.0134 20.0053 19.9971 19.9889 19.981 19.9736 19.9668 19.961 19.9561 19.9523 19.9497 19.9484 19.9482 19.9492 19.9512 19.9541 19.9577 19.9623 19.9682 19.9764 19.9885 20.0071 20.0352 20.0755 20.1282 20.1879 20.2377 20.2425 20.1416 19.8436 
19.191 19.649 19.9223 20.0615 20.115 20.1211 20.106 20.0848 20.0654 20.0505 20.0402 20.0336 20.0291 20.0258 20.0228 20.0195 20.0158 20.0115 20.0067 20.0017 19.9965 19.9913 19.9863 19.9817 19.9775 19.9738 19.9709 19.9687 19.9673 19.9668 19.9671 19.9682 19.97 19.9724 19.9752 19.9783 19.9814 19.9847 19.9886 19.9939 20.0027 20.0176 20.0423 20.0807 20.1348 20.2017 20.2677 20.3011 20.243 20 
19.109 19.5671 19.8569 20.0156 20.0853 20.1023 20.0932 20.0744 20.055 20.0391 20.0274 20.0194 20.0141 20.0104 20.0074 20.0048 20.002 19.9992 19.9962 19.9932 19.9902 19.9874 19.9849 19.9827 19.981 19.9798 19.9791 19.9789 19.9794 19.9803 19.9818 19.9837 19.986 19.9884 19.9909 19.9931 19.995 19.9965 19.998 20.0004 20.0057 20.0169 20.0381 20.0742 20.1291 20.2026 20.2847 20.3476 20.3358 20.1564 
19.0489 19.495 19.7935 19.9677 20.0524 20.0808 20.0789 20.064 20.0463 20.0306 20.0186 20.0103 20.0049 20.0014 19.999 19.9971 19.9955 19.994 19.9925 19.9911 19.9898 19.9886 19.9877 19.9871 19.9869 19.9869 19.9873 19.9881 19.9892 19.9906 19.9923 19.9942 19.9962 19.9981 19.9997 20.0009 20.0014 20.0012 20.0006 20.0005 20.0027 20.0104 20.0281 20.0616 20.1165 20.1953 20.2919 20.3836 20.4195 20.309 
19.0123 19.4352 19.7351 19.9209 20.019 20.0587 20.0648 20.0548 20.0397 20.0252 20.0137 20.0055 20.0003 19.9971 19.9953 19.9942 19.9935 19.993 19.9925 19.9922 19.9919 19.9918 19.9918 19.9921 19.9925 19.9931 19.9939 19.9949 19.9961 19.9974 19.9988 20.0003 20.0017 20.003 20.0038 20.0041 20.0035 20.002 19.9997 19.9975 19.9971 20.0016 20.0158 20.0463 20.1001 20.1825 20.2915 20.4098 20.4926 20.454 
19 19.3895 19.6838 19.877 19.9865 20.037 20.0513 20.0469 20.0351 20.0223 20.0116 20.0038 19.9988 19.9959 19.9945 19.9939 19.9938 19.9939 19.9941 19.9944 19.9947 19.9951 19.9956 19.9962 19.9968 19.9975 19.9983 19.9992 20.0002 20.0012 20.0022 20.0032 20.0041 20.0048 20.005 20.0046 20.0033 20.0009 19.9975 19.9937 19.9911 19.9926 20.0033 20.0302 20.0818 20.1658 20.2844 20.4263 20.5538 20.5878 
19.0123 19.3592 19.6409 19.8371 19.9556 20.0159 20.0384 20.0397 20.0316 20.0208 20.0112 20.0039 19.9991 19.9964 19.9951 19.9948 19.995 19.9955 19.996 19.9966 19.9972 19.9978 19.9984 19.999 19.9996 20.0003 20.0009 20.0016 20.0022 20.0029 20.0036 20.0042 20.0047 20.0049 20.0048 20.004 20.0023 19.9994 19.9953 19.9903 19.9858 19.9847 19.9918 20.0145 20.0625 20.146 20.2712 20.4329 20.6016 20.7071 
19.0489 19.3449 19.6073 19.8019 19.9267 19.9955 20.0257 20.0329 20.0285 20.0201 20.0116 20.0048 20.0002 19.9976 19.9963 19.9961 19.9964 19.9969 19.9976 19.9983 19.9989 19.9996 20.0001 20.0007 20.0012 20.0017 20.0021 20.0025 20.0029 20.0033 20.0037 20.004 20.0042 20.0043 20.004 20.0031 20.0013 19.9982 19.9936 19.9878 19.9817 19.9781 19.9815 19.9996 20.0428 20.1235 20.252 20.4294 20.635 20.809 
19.109 19.3469 19.5837 19.772 19.9002 19.9759 20.013 20.0258 20.0254 20.0194 20.0122 20.006 20.0015 19.9989 19.9976 19.9973 19.9975 19.9981 19.9987 19.9994 20 20.0005 20.001 20.0015 20.0018 20.0021 20.0024 20.0026 20.0028 20.003 20.0032 20.0034 20.0035 20.0035 20.0031 20.0023 20.0005 19.9974 19.9927 19.9863 19.9789 19.9729 19.9725 19.9855 20.0229 20.0988 20.2273 20.4158 20.6529 20.891 
19.191 19.3651 19.5706 19.748 19.8765 19.9572 20.0004 20.0185 20.0219 20.0184 20.0125 20.007 20.0028 20.0001 19.9987 19.9982 19.9983 19.9988 19.9993 19.9999 20.0005 20.0009 20.0013 20.0016 20.0019 20.0021 20.0022 20.0023 20.0024 20.0025 20.0025 20.0026 20.0027 20.0027 20.0025 20.0017 20.0001 19.9972 19.9925 19.9857 19.9773 19.969 19.965 19.9725 20.003 20.0722 20.1974 20.3922 20.6549 20.9511 
19.2929 19.3989 19.5681 19.7304 19.8559 19.9396 19.9878 20.0107 20.0179 20.0169 20.0125 20.0077 20.0037 20.001 19.9995 19.9988 19.9988 19.9991 19.9996 20.0001 20.0005 20.0009 20.0012 20.0015 20.0017 20.0018 20.0018 20.0018 20.0018 20.0018 20.0019 20.0019 20.002 20.0021 20.002 20.0015 20.0001 19.9975 19.9929 19.9859 19.9766 19.9664 19.9587 19.9605 19.9835 20.0441 20.1628 20.3591 20.6409 20.9877 
19.4122 19.4476 19.5763 19.7194 19.8389 19.9236 19.9756 20.0027 20.0134 20.0149 20.0121 20.0081 20.0044 20.0017 20.0001 19.9993 19.9991 19.9993 19.9996 20 20.0004 20.0007 20.001 20.0012 20.0013 20.0014 20.0014 20.0013 20.0013 20.0013 20.0013 20.0014 20.0015 20.0016 20.0017 20.0014 20.0004 19.998 19.9937 19.9867 19.9768 19.9648 19.9537 19.9498 19.9645 20.0151 20.1244 20.3173 20.6111 21 
19.546 19.5099 19.5949 19.7152 19.8259 19.9094 19.9638 19.9945 20.0085 20.0124 20.0112 20.008 20.0048 20.0022 20.0005 19.9996 19.9992 19.9993 19.9995 19.9999 20.0002 20.0005 20.0007 20.0008 20.0009 20.001 20.001 20.0009 20.0009 20.0008 20.0008 20.0009 20.0011 20.0013 20.0015 20.0014 20.0008 19.9988 19.9948 19.988 19.9777 19.9642 19.9499 19.9404 19.9465 19.9858 20.083 20.2677 20.5663 20.9877 
19.691 19.5842 19.6235 19.7181 19.817 19.8973 19.9529 19.9863 20.0032 20.0095 20.0099 20.0077 20.0049 20.0025 20.0008 19.9997 19.9993 19.9992 19.9994 19.9997 19.9999 20.0002 20.0004 20.0005 20.0006 20.0006 20.0006 20.0006 20.0005 20.0005 20.0005 20.0006 20.0008 20.0011 20.0014 20.0016 20.0012 19.9997 19.9962 19.9896 19.9791 19.9645 19.9473 19.9324 19.9298 19.9568 20.0396 20.2115 20.5076 20.9511 
19.8436 19.6687 19.6613 19.7279 19.8127 19.8878 19.9431 19.9784 19.9978 20.0062 20.0083 20.0071 20.0049 20.0027 20.001 19.9999 19.9994 19.9992 19.9993 19.9995 19.9997 20 20.0001 20.0003 20.0003 20.0004 20.0003 20.0003 20.0002 20.0002 20.0002 20.0003 20.0005 20.0009 20.0013 20.0017 20.0017 20.0006 19.9976 19.9915 19.9811 19.9657 19.9461 19.9261 19.9148 19.9289 19.9951 20.1501 20.4363 20.891 
20 19.7614 19.7074 19.7443 19.8129 19.8809 19.9346 19.971 19.9924 20.0028 20.0064 20.0063 20.0047 20.0027 20.0011 20 19.9994 19.9992 19.9992 19.9994 19.9996 19.9998 19.9999 20.0001 20.0001 20.0002 20.0001 20.0001 20 20 20 20.0001 20.0003 20.0007 20.0012 20.0018 20.0021 20.0015 19.999 19.9935 19.9835 19.9677 19.9461 19.9216 19.9018 19.9027 19.9508 20.085 20.3543 20.809 
20.1564 19.86 19.7607 19.767 19.8176 19.8769 19.9277 19.9642 19.9871 19.9992 20.0043 20.0053 20.0043 20.0027 20.0012 20.0002 19.9995 19.9992 19.9992 19.9993 19.9994 19.9996 19.9998 19.9999 20 20 20 20 19.9999 19.9998 19.9998 19.9999 20.0001 20.0005 20.0011 20.0019 20.0024 20.0023 20.0005 19.9957 19.9862 19.9704 19.9474 19.9189 19.8913 19.8789 19.9076 20.0178 20.2636 20.7071 
20.309 19.962 19.8199 19.7954 19.8269 19.876 19.9225 19.9583 19.9821 19.9957 20.0021 20.0041 20.0038 20.0026 20.0013 20.0003 19.9996 19.9993 19.9992 19.9992 19.9994 19.9996 19.9997 19.9998 19.9999 19.9999 19.9999 19.9999 19.9998 19.9997 19.9997 19.9997 19.9999 20.0003 20.001 20.0019 20.0027 20.003 20.0019 19.998 19.9893 19.9738 19.95 19.9183 19.8834 19.858 19.8667 19.9501 20.1663 20.5878 
20.454 20.0649 19.8835 19.8289 19.8404 19.8781 19.9192 19.9534 19.9775 19.9922 19.9998 20.0028 20.0032 20.0025 20.0014 20.0004 19.9997 19.9994 19.9992 19.9993 19.9994 19.9995 19.9997 19.9998 19.9999 19.9999 19.9999 19.9998 19.9998 19.9997 19.9996 19.9996 19.9998 20.0002 20.0009 20.0019 20.003 20.0037 20.0033 20.0003 19.9926 19.9779 19.9538 19.9196 19.8783 19.8406 19.829 19.8836 20.065 20.454 
20.5878 20.1663 19.95 19.8665 19.8578 19.8831 19.9179 19.9496 19.9734 19.9888 19.9975 20.0014 20.0025 20.0022 20.0014 20.0005 19.9999 19.9995 19.9993 19.9993 19.9994 19.9996 19.9997 19.9998 19.9999 19.9999 19.9999 19.9999 19.9998 19.9997 19.9996 19.9995 19.9997 20 20.0007 20.0018 20.0031 20.0043 20.0046 20.0025 19.9961 19.9825 19.9587 19.9228 19.8763 19.8271 19.7956 19.82 19.9621 20.309 
20.7071 20.2635 20.0176 19.9074 19.8786 19.891 19.9186 19.947 19.9699 19.9857 19.9952 20 20.0017 20.0019 20.0013 20.0006 20 19.9996 19.9995 19.9994 19.9995 19.9996 19.9998 19.9999 20 20 20 19.9999 19.9998 19.9997 19.9996 19.9995 19.9996 19.9999 20.0006 20.0017 20.0032 20.0048 20.0057 20.0047 19.9996 19.9874 19.9646 19.928 19.8772 19.8178 19.7672 19.7608 19.8601 20.1564 
20.809 20.3542 20.0849 19.9505 19.9024 19.9015 19.9211 19.9456 19.9671 19.9829 19.9929 19.9984 20.0009 20.0015 20.0012 20.0007 20.0002 19.9998 19.9996 19.9996 19.9996 19.9998 19.9999 20 20.0001 20.0001 20.0001 20.0001 20 19.9998 19.9996 19.9995 19.9996 19.9998 20.0004 20.0016 20.0032 20.0051 20.0067 20.0068 20.0032 19.9927 19.9713 19.9349 19.8811 19.813 19.7444 19.7075 19.7615 20 
20.891 20.4362 20.15 19.9949 19.9286 19.9144 19.9256 19.9456 19.9651 19.9805 19.9908 19.9969 19.9999 20.001 20.0011 20.0007 20.0003 20 19.9998 19.9998 19.9999 20 20.0001 20.0002 20.0003 20.0004 20.0003 20.0003 20.0001 20 19.9998 19.9996 19.9996 19.9997 20.0003 20.0014 20.0031 20.0053 20.0075 20.0086 20.0066 19.9981 19.9787 19.9433 19.8879 19.8128 19.728 19.6614 19.6688 19.8436 
20.9511 20.5075 20.2113 20.0393 19.9564 19.9293 19.9319 19.9468 19.9639 19.9785 19.9889 19.9955 19.999 20.0006 20.001 20.0008 20.0005 20.0003 20.0001 20.0001 20.0002 20.0003 20.0004 20.0005 20.0006 20.0006 20.0006 20.0005 20.0004 20.0002 19.9999 19.9997 19.9996 19.9996 20.0001 20.0011 20.0028 20.0052 20.008 20.0102 20.0097 20.0034 19.9865 19.9531 19.8975 19.8171 19.7182 19.6235 19.5842 19.691 
20.9877 20.5662 20.2675 20.0827 19.9854 19.946 19.9398 19.9493 19.9636 19.977 19.9873 19.9942 19.9982 20.0001 20.0009 20.001 20.0008 20.0007 20.0005 20.0005 20.0006 20.0007 20.0008 20.0009 20.001 20.001 20.0009 20.0008 20.0006 20.0004 20.0001 19.9998 19.9995 19.9995 19.9998 20.0007 20.0024 20.005 20.0082 20.0114 20.0126 20.0086 19.9946 19.9639 19.9095 19.8259 19.7153 19.595 19.5099 19.546 
21 20.611 20.3171 20.1241 20.0147 19.9641 19.9493 19.9531 19.9642 19.9762 19.9861 19.9931 19.9975 19.9999 20.0009 20.0013 20.0013 20.0012 20.0011 20.0011 20.0011 20.0012 20.0013 20.0013 20.0014 20.0013 20.0013 20.0011 20.0008 20.0005 20.0001 19.9997 19.9994 19.9992 19.9994 20.0001 20.0018 20.0044 20.0081 20.0121 20.0149 20.0135 20.0027 19.9756 19.9236 19.839 19.7194 19.5763 19.4476 19.4122 
20.9877 20.6408 20.359 20.1626 20.0438 19.9831 19.9602 19.9583 19.966 19.9762 19.9855 19.9925 19.9971 19.9998 20.0012 20.0017 20.0019 20.0019 20.0018 20.0018 20.0018 20.0018 20.0018 20.0018 20.0017 20.0016 20.0015 20.0012 20.0009 20.0005 20 19.9995 19.999 19.9987 19.9987 19.9993 20.0008 20.0036 20.0076 20.0124 20.0168 20.0179 20.0107 19.9878 19.9397 19.856 19.7304 19.5682 19.3989 19.2929 
20.9511 20.6549 20.3922 20.1973 20.0721 20.003 19.9724 19.9649 19.9689 19.9772 19.9856 19.9924 19.9972 20.0001 20.0017 20.0025 20.0027 20.0027 20.0026 20.0025 20.0024 20.0023 20.0022 20.0021 20.0019 20.0017 20.0014 20.001 20.0006 20 19.9995 19.9989 19.9983 19.9978 19.9977 19.9982 19.9996 20.0024 20.0067 20.0123 20.0182 20.0218 20.0185 20.0005 19.9573 19.8766 19.7482 19.5707 19.3651 19.191 
20.891 20.653 20.416 20.2276 20.0992 20.0234 19.986 19.973 19.9734 19.9794 19.9867 19.9931 19.9978 20.0009 20.0026 20.0035 20.0037 20.0037 20.0035 20.0032 20.0029 20.0026 20.0023 20.002 20.0016 20.0012 20.0007 20.0002 19.9996 19.999 19.9984 19.9977 19.9971 19.9966 19.9964 19.9968 19.9982 20.001 20.0055 20.0119 20.0192 20.0255 20.026 20.0133 19.9762 19.9006 19.7724 19.584 19.347 19.109 
20.809 20.6353 20.4301 20.2529 20.1246 20.044 20.0009 19.9828 19.9794 19.983 19.989 19.9947 19.9991 20.0021 20.0038 20.0045 20.0046 20.0044 20.0039 20.0034 20.0028 20.0022 20.0016 20.001 20.0004 19.9998 19.9991 19.9985 19.9979 19.9973 19.9966 19.996 19.9954 19.995 19.9948 19.9953 19.9967 19.9996 20.0045 20.0115 20.0203 20.029 20.0335 20.0265 19.9964 19.9276 19.8026 19.6078 19.3452 19.0489 
20.7071 20.6023 20.4341 20.2728 20.148 20.0649 20.017 19.9942 19.9871 19.988 19.9923 19.997 20.0009 20.0034 20.0048 20.0052 20.005 20.0043 20.0035 20.0025 20.0015 20.0005 19.9996 19.9987 19.9978 19.997 19.9963 19.9957 19.9951 19.9946 19.9941 19.9938 19.9935 19.9933 19.9934 19.9941 19.9958 19.9989 20.0041 20.0119 20.0219 20.033 20.0415 20.0402 20.0177 19.9573 19.8385 19.6419 19.3597 19.0123 
20.5878 20.5548 20.4282 20.2871 20.169 20.0854 20.034 20.0071 19.9961 19.9942 19.9964 19.9997 20.0025 20.0042 20.0049 20.0047 20.0038 20.0026 20.0012 19.9996 19.9982 19.9968 19.9955 19.9944 19.9934 19.9926 19.992 19.9916 19.9914 19.9913 19.9913 19.9915 19.9918 19.9923 19.993 19.9942 19.9963 19.9998 20.0055 20.0138 20.0251 20.0382 20.0503 20.0548 20.0403 19.9894 19.8793 19.6854 19.3903 19 
20.454 20.4939 20.4124 20.2951 20.1868 20.1049 20.0512 20.0205 20.0058 20.0006 20.0002 20.0014 20.0027 20.0032 20.0028 20.0016 19.9998 19.9978 19.9957 19.9936 19.9917 19.99 19.9887 19.9876 19.9869 19.9865 19.9864 19.9867 19.9873 19.9881 19.9892 19.9904 19.9917 19.9932 19.9949 19.9969 19.9997 20.0038 20.0098 20.0187 20.0307 20.0456 20.0607 20.0705 20.0639 20.0234 19.9243 19.7373 19.4363 19.0123 
20.309 20.421 20.3865 20.296 20.2001 20.1217 20.0667 20.0327 20.0141 20.0052 20.0016 20.0003 19.9993 19.9981 19.9962 19.9938 19.991 19.9882 19.9856 19.9832 19.9812 19.9798 19.9788 19.9784 19.9786 19.9793 19.9806 19.9823 19.9844 19.9869 19.9896 19.9925 19.9954 19.9983 20.0013 20.0043 20.0079 20.0124 20.0187 20.0276 20.0399 20.0556 20.073 20.0871 20.0878 20.058 19.9717 19.796 19.4962 19.0489 
20.1564 20.337 20.3498 20.2878 20.2063 20.1328 20.0774 20.0403 20.0176 20.0046 19.9973 19.9928 19.9893 19.9859 19.9824 19.9789 19.9754 19.9723 19.9697 19.9677 19.9666 19.9663 19.9668 19.9682 19.9705 19.9734 19.9771 19.9813 19.9859 19.9908 19.9959 20.001 20.006 20.0106 20.0149 20.019 20.023 20.0275 20.0334 20.0415 20.0529 20.0682 20.0862 20.1032 20.1102 20.0908 20.0188 19.8584 19.5677 19.109 
20 20.2426 20.3006 20.267 20.2007 20.1331 20.0778 20.0378 20.0109 19.9935 19.9823 19.9744 19.9683 19.9631 19.9586 19.9546 19.9514 19.9491 19.9479 19.948 19.9493 19.9519 19.9556 19.9605 19.9664 19.9732 19.9806 19.9885 19.9967 20.0049 20.0129 20.0205 20.0275 20.0336 20.0388 20.043 20.0466 20.05 20.0539 20.0597 20.0684 20.0811 20.0977 20.1154 20.1268 20.117 20.0606 19.9201 19.6472 19.191 
19.8436 20.1376 20.2352 20.2278 20.1761 20.1146 20.0599 20.0173 19.9866 19.9653 19.9505 19.94 19.9323 19.9267 19.9226 19.9202 19.9194 19.9204 19.9232 19.9278 19.9342 19.9422 19.9516 19.9623 19.9739 19.9862 19.9989 20.0115 20.0239 20.0357 20.0465 20.0561 20.0641 20.0704 20.0748 20.0774 20.0783 20.0782 20.0778 20.0784 20.0816 20.0888 20.1009 20.1164 20.1298 20.1284 20.0888 19.9734 19.7293 19.2929 
19.691 20.0202 20.1476 20.1614 20.1221 20.0664 20.0129 19.969 19.9359 19.9123 19.8961 19.8855 19.879 19.876 19.8759 19.8787 19.8842 19.8924 19.9032 19.9162 19.9313 19.9481 19.9662 19.9851 20.0044 20.0237 20.0423 20.06 20.0761 20.0904 20.1023 20.1117 20.1181 20.1215 20.1218 20.119 20.1134 20.1058 20.097 20.0886 20.0824 20.0804 20.0842 20.094 20.1064 20.1119 20.0905 20.0068 19.8059 19.4122 
19.546 19.887 20.029 20.0555 20.0254 19.9754 19.9249 19.8826 19.851 19.8295 19.8166 19.811 19.8113 19.8167 19.8267 19.8407 19.8586 19.8797 19.9038 19.9301 19.9581 19.9872 20.0166 20.0456 20.0735 20.0996 20.1233 20.144 20.1611 20.1742 20.1829 20.1871 20.1865 20.1812 20.1713 20.1571 20.1392 20.1184 20.096 20.0736 20.0535 20.0381 20.0298 20.0303 20.0388 20.0496 20.0479 20.0039 19.8648 19.546 
19.4122 19.7319 19.8672 19.8956 19.8714 19.8287 19.7861 19.752 19.7295 19.7185 19.718 19.7265 19.7429 19.7661 19.7951 19.829 19.8671 19.9083 19.9516 19.9962 20.0408 20.0844 20.1259 20.1644 20.1988 20.2283 20.2522 20.27 20.281 20.2851 20.2822 20.2723 20.2555 20.2323 20.2033 20.1692 20.1311 20.0901 20.0479 20.0066 19.9685 19.9366 19.9139 19.9031 19.9059 19.9207 19.9398 19.9434 19.8887 19.691 
19.2929 19.5455 19.6481 19.6679 19.6496 19.6207 19.5962 19.5829 19.5832 19.597 19.6232 19.6601 19.7062 19.7599 19.8196 19.8836 19.9504 20.0184 20.0859 20.1512 20.2128 20.2692 20.3189 20.3608 20.3938 20.4172 20.4302 20.4327 20.4245 20.4059 20.3772 20.3392 20.2928 20.239 20.1793 20.1152 20.0482 19.9803 19.9137 19.8506 19.7938 19.7461 19.7108 19.6911 19.69 19.7094 19.749 19.803 19.8521 19.8436 
19.191 19.3135 19.3593 19.367 19.3634 19.364 19.377 19.4056 19.4504 19.5104 19.5836 19.6678 19.7606 19.8596 19.962 20.0653 20.167 20.2645 20.3555 20.4377 20.5092 20.5681 20.613 20.6428 20.6568 20.6547 20.6364 20.6025 20.5537 20.4912 20.4167 20.3319 20.2389 20.1399 20.0375 19.9341 19.8323 19.7348 19.6443 19.5632 19.4943 19.44 19.403 19.3858 19.3908 19.4208 19.4792 19.5724 19.7158 20 
19.109 19.0123 19 19.0123 19.0489 19.109 19.191 19.2929 19.4122 19.546 19.691 19.8436 20 20.1564 20.309 20.454 20.5878 20.7071 20.809 20.891 20.9511 20.9877 21 20.9877 20.9511 20.891 20.809 20.7071 20.5878 20.454 20.309 20.1564 20 19.8436 19.691 19.546 19.4122 19.2929 19.191 19.109 19.0489 19.0123 19 19.0123 19.0489 19.109 19.191 19.2929 19.4122 20.1564 
