# vtk DataFile Version 3.0
Temperature distribution on a 2D grid
ASCII

DATASET STRUCTURED_POINTS
DIMENSIONS 50 50 1
ORIGIN 0.0 0.0 0.0
SPACING 0.01 0.01 1.0

POINT_DATA 2500
SCALARS temperature double
LOOKUP_TABLE default
19.0241 20.998 20.9956 20.9686 20.9178 20.8443 20.7501 20.6374 20.509 20.3681 20.2181 20.0628 19.9059 19.7513 19.6029 19.4642 19.3387 19.2295 19.1393 19.0702 19.0241 19.002 19.0044 19.0314 19.0822 19.1557 19.2499 19.3626 19.491 19.6319 19.7819 19.9372 20.0941 20.2487 20.3971 20.5358 20.6613 20.7705 20.8607 20.9298 20.9759 20.998 20.9956 20.9686 20.9178 20.8443 20.7501 20.6374 20.509 20.2181 
19.0702 19.9974 20.2898 20.3907 20.4009 20.3618 20.2934 20.2071 20.1102 20.008 19.9045 19.8032 19.7069 19.6181 19.5389 19.4713 19.4169 19.377 19.3525 19.344 19.3516 19.3752 19.4142 19.4676 19.5341 19.6121 19.6997 19.7947 19.8947 19.9974 20.1001 20.2004 20.2958 20.3839 20.4627 20.5302 20.5847 20.625 20.65 20.659 20.6513 20.6265 20.5842 20.5243 20.4468 20.3533 20.249 20.146 20.0707 20.0628 
19.1393 19.6024 19.8729 20.0118 20.0648 20.0639 20.0305 19.9785 19.9173 19.8535 19.7913 19.7338 19.6831 19.6407 19.6077 19.5848 19.5724 19.5708 19.5799 19.5993 19.6287 19.6672 19.7139 19.7677 19.8272 19.891 19.9574 20.025 20.0919 20.1566 20.2175 20.2731 20.322 20.3631 20.3954 20.4181 20.4309 20.4332 20.4252 20.4065 20.3772 20.3366 20.2838 20.2175 20.1366 20.0421 19.9401 19.849 19.8104 19.9059 
19.2295 19.4581 19.6613 19.8001 19.8772 19.907 19.9049 19.8838 19.8532 19.8199 19.7882 19.7611 19.7402 19.7263 19.7199 19.721 19.7293 19.7447 19.7665 19.7941 19.8269 19.8639 19.9043 19.9471 19.9911 20.0355 20.0789 20.1205 20.1591 20.1939 20.2239 20.2485 20.267 20.2791 20.2846 20.2833 20.2754 20.2612 20.2409 20.2147 20.1823 20.1427 20.0942 20.0341 19.9596 19.8697 19.7699 19.6793 19.6438 19.7513 
19.3387 19.43 19.5734 19.7006 19.7897 19.8409 19.8628 19.8654 19.8573 19.8452 19.8334 19.8247 19.8205 19.8215 19.8277 19.8388 19.8545 19.8741 19.897 19.9225 19.95 19.9788 20.0081 20.0372 20.0655 20.0921 20.1165 20.1381 20.1563 20.1707 20.181 20.1869 20.1883 20.1852 20.1779 20.1665 20.1516 20.1335 20.1127 20.0892 20.0627 20.0316 19.9932 19.9435 19.8778 19.7926 19.6908 19.5891 19.5313 19.6029 
19.4642 19.4607 19.555 19.6669 19.7602 19.8248 19.8631 19.8821 19.889 19.8901 19.8897 19.8906 19.8942 19.9011 19.9113 19.9245 19.94 19.9575 19.9763 19.9957 20.0154 20.0347 20.0531 20.0703 20.0857 20.0991 20.1101 20.1184 20.1238 20.1263 20.1257 20.1221 20.1156 20.1065 20.0951 20.0817 20.067 20.0514 20.0353 20.0188 20.0011 19.9803 19.9531 19.914 19.8565 19.7745 19.6673 19.5472 19.4529 19.4642 
19.6029 19.5233 19.5739 19.6677 19.7594 19.8309 19.8793 19.9086 19.9248 19.9334 19.9387 19.9437 19.9497 19.9575 19.9672 19.9784 19.9908 20.0038 20.017 20.03 20.0422 20.0535 20.0634 20.0718 20.0785 20.0833 20.086 20.0867 20.0853 20.0818 20.0765 20.0693 20.0606 20.0506 20.0397 20.0283 20.0169 20.0061 19.9961 19.987 19.9779 19.9667 19.9493 19.9196 19.8691 19.7894 19.6756 19.5346 19.3982 19.3387 
19.7513 19.6043 19.6126 19.6852 19.7702 19.8432 19.8969 19.9322 19.9536 19.9662 19.9739 19.9799 19.9856 19.9921 19.9994 20.0075 20.016 20.0245 20.0327 20.0402 20.0468 20.0524 20.0566 20.0594 20.0608 20.0608 20.0593 20.0563 20.0521 20.0466 20.0401 20.0327 20.0246 20.0162 20.0076 19.9995 19.9921 19.9861 19.9816 19.9788 19.9767 19.9732 19.9639 19.942 19.8979 19.8204 19.7008 19.5402 19.3621 19.2295 
19.9059 19.6962 19.662 19.7102 19.7842 19.8546 19.9097 19.948 19.9722 19.9867 19.9953 20.0009 20.0055 20.0099 20.0147 20.0197 20.0248 20.0297 20.0341 20.0379 20.0408 20.0428 20.0437 20.0435 20.0423 20.04 20.0368 20.0328 20.0281 20.0227 20.0168 20.0106 20.0043 19.9981 19.9923 19.9872 19.9833 19.9811 19.9808 19.9826 19.9857 19.988 19.9851 19.97 19.9318 19.8576 19.7348 19.558 19.3422 19.1393 
20.0628 19.795 19.7178 19.7389 19.7984 19.8628 19.9167 19.9558 19.9813 19.9967 20.0055 20.0106 20.0139 20.0166 20.0192 20.0219 20.0246 20.027 20.029 20.0305 20.0313 20.0314 20.0307 20.0292 20.027 20.0242 20.0209 20.0171 20.0129 20.0085 20.0039 19.9994 19.995 19.9909 19.9873 19.9846 19.9832 19.9835 19.986 19.9908 19.9974 20.0039 20.0062 19.9971 19.9653 19.896 19.7731 19.5851 19.3377 19.0702 
20.2181 19.8975 19.7782 19.7703 19.8126 19.8683 19.9189 19.9574 19.9834 19.9993 20.0082 20.0129 20.0154 20.0169 20.0181 20.0192 20.0204 20.0213 20.022 20.0223 20.0221 20.0214 20.0202 20.0184 20.0163 20.0137 20.0109 20.0078 20.0046 20.0014 19.9982 19.9951 19.9923 19.9898 19.9878 19.9867 19.9867 19.9885 19.9925 19.999 20.0079 20.0175 20.0241 20.0207 19.9958 19.9333 19.8138 19.6202 19.3483 19.0241 
20.3681 20.0015 19.8418 19.8043 19.8275 19.8726 19.9183 19.9551 19.981 19.9973 20.0065 20.0111 20.0132 20.0141 20.0145 20.0148 20.0151 20.0153 20.0154 20.0153 20.0148 20.0139 20.0128 20.0113 20.0095 20.0075 20.0054 20.0032 20.001 19.9988 19.9967 19.9947 19.993 19.9915 19.9905 19.9902 19.991 19.9934 19.998 20.0054 20.0155 20.0273 20.0377 20.0399 20.0226 19.9686 19.8561 19.6624 19.3738 19.002 
20.509 20.1047 19.9078 19.8409 19.8441 19.8773 19.9167 19.9511 19.9764 19.9929 20.0025 20.0074 20.0095 20.0103 20.0104 20.0104 20.0103 20.0103 20.0102 20.01 20.0096 20.0089 20.0081 20.007 20.0057 20.0043 20.0029 20.0014 19.9999 19.9985 19.9972 19.996 19.9949 19.9941 19.9936 19.9936 19.9946 19.9971 20.0017 20.0092 20.02 20.0335 20.0471 20.0548 20.0456 20.0019 19.8997 19.7113 19.4139 19.0044 
20.6374 20.2049 19.9752 19.8802 19.8631 19.8833 19.9157 19.9468 19.9711 19.9877 19.9977 20.0031 20.0056 20.0065 20.0067 20.0066 20.0065 20.0065 20.0065 20.0064 20.0062 20.0058 20.0053 20.0046 20.0038 20.0029 20.002 20.0011 20.0001 19.9992 19.9984 19.9977 19.997 19.9964 19.9961 19.9962 19.997 19.9992 20.0035 20.0108 20.0218 20.0365 20.053 20.0661 20.0653 20.0331 19.9441 19.7662 19.4678 19.0314 
20.7501 20.2997 20.0428 19.9218 19.8847 19.8915 19.916 19.9432 19.9661 19.9826 19.9931 19.999 20.002 20.0032 20.0036 20.0037 20.0038 20.0038 20.0039 20.004 20.004 20.0039 20.0037 20.0034 20.003 20.0024 20.0019 20.0013 20.0007 20.0002 19.9996 19.9991 19.9986 19.9982 19.9978 19.9977 19.9982 19.9999 20.0037 20.0105 20.0215 20.037 20.056 20.0741 20.0819 20.0624 19.9889 19.8261 19.5345 19.0822 
20.8443 20.387 20.109 19.9651 19.9088 19.902 19.9182 19.9409 19.962 19.9781 19.9889 19.9954 19.9989 20.0006 20.0013 20.0016 20.0018 20.002 20.0023 20.0025 20.0027 20.0028 20.0028 20.0028 20.0026 20.0023 20.002 20.0016 20.0012 20.0009 20.0005 20.0001 19.9997 19.9992 19.9987 19.9984 19.9985 19.9997 20.0027 20.0089 20.0196 20.0356 20.0566 20.0795 20.0958 20.0893 20.0334 19.8899 19.6124 19.1557 
20.9178 20.4648 20.1725 20.0091 19.9351 19.915 19.9224 19.9403 19.959 19.9744 19.9854 19.9924 19.9964 19.9985 19.9996 20.0001 20.0005 20.0008 20.0012 20.0016 20.0019 20.0021 20.0023 20.0023 20.0023 20.0022 20.002 20.0018 20.0015 20.0012 20.0009 20.0006 20.0002 19.9996 19.999 19.9984 19.9982 19.9988 20.0011 20.0065 20.0166 20.0327 20.0553 20.0824 20.1068 20.1138 20.0769 19.9563 19.6998 19.2499 
20.9686 20.5311 20.2318 20.0529 19.963 19.9301 19.9287 19.9412 19.9573 19.9717 19.9826 19.9899 19.9943 19.9969 19.9982 19.999 19.9996 20 20.0004 20.0009 20.0013 20.0016 20.0018 20.002 20.002 20.002 20.0019 20.0017 20.0015 20.0013 20.001 20.0007 20.0003 19.9997 19.9989 19.9981 19.9975 19.9975 19.9991 20.0036 20.0129 20.0287 20.0524 20.083 20.1151 20.1352 20.1183 20.0236 19.7945 19.3626 
20.9956 20.5844 20.2854 20.0955 19.9919 19.9471 19.9368 19.9437 19.9567 19.9698 19.9803 19.9878 19.9927 19.9956 19.9972 19.9982 19.9989 19.9994 19.9999 20.0003 20.0008 20.0011 20.0014 20.0016 20.0016 20.0016 20.0016 20.0015 20.0013 20.0011 20.0009 20.0005 20.0001 19.9995 19.9986 19.9976 19.9966 19.9961 19.9969 20.0004 20.0087 20.0239 20.0482 20.0816 20.1205 20.1534 20.1568 20.0904 19.8943 19.491 
20.998 20.6233 20.3319 20.1357 20.0211 19.9653 19.9466 19.9477 19.9573 19.9687 19.9787 19.9862 19.9913 19.9945 19.9964 19.9975 19.9983 19.9989 19.9994 19.9999 20.0003 20.0007 20.0009 20.0011 20.0012 20.0013 20.0012 20.0011 20.001 20.0008 20.0006 20.0002 19.9998 19.9991 19.9982 19.997 19.9957 19.9946 19.9947 19.9972 20.0043 20.0185 20.0427 20.0781 20.1229 20.1677 20.1914 20.1549 19.9967 19.6319 
20.9759 20.6468 20.3703 20.1726 20.0497 19.9845 19.9577 19.9531 19.9591 19.9685 19.9777 19.985 19.9902 19.9936 19.9957 19.997 19.9979 19.9985 19.999 19.9995 19.9999 20.0002 20.0005 20.0007 20.0008 20.0009 20.0008 20.0007 20.0006 20.0004 20.0002 19.9999 19.9994 19.9987 19.9978 19.9964 19.9948 19.9933 19.9925 19.9939 19.9997 20.0126 20.0361 20.0727 20.1222 20.1779 20.2213 20.2156 20.0991 19.7819 
20.9298 20.6544 20.3996 20.2053 20.0771 20.004 19.9698 19.9595 19.9618 19.9691 19.9772 19.9842 19.9894 19.9929 19.9952 19.9966 19.9975 19.9982 19.9987 19.9991 19.9995 19.9999 20.0001 20.0003 20.0004 20.0005 20.0004 20.0004 20.0002 20.0001 19.9998 19.9995 19.9991 19.9984 19.9973 19.9959 19.994 19.992 19.9905 19.9908 19.9951 20.0064 20.0286 20.0655 20.1185 20.1837 20.2458 20.271 20.1992 19.9372 
20.8607 20.6459 20.419 20.2328 20.1026 20.0234 19.9827 19.967 19.9654 19.9704 19.9773 19.9837 19.9888 19.9924 19.9948 19.9963 19.9973 19.998 19.9985 19.9989 19.9993 19.9996 19.9998 20 20.0001 20.0001 20.0001 20 19.9999 19.9997 19.9995 19.9992 19.9987 19.998 19.997 19.9954 19.9934 19.9909 19.9887 19.9879 19.9905 19.9999 20.0204 20.0566 20.1119 20.185 20.2641 20.3197 20.2943 20.0941 
20.7705 20.6214 20.4281 20.2546 20.1255 20.0422 19.9959 19.9752 19.9698 19.9723 19.9778 19.9836 19.9884 19.992 19.9945 19.9961 19.9971 19.9978 19.9983 19.9987 19.9991 19.9994 19.9996 19.9998 19.9999 19.9999 19.9999 19.9998 19.9997 19.9995 19.9993 19.9989 19.9985 19.9978 19.9967 19.9951 19.9928 19.9901 19.9872 19.9852 19.9862 19.9935 20.0116 20.0463 20.1025 20.1816 20.276 20.3605 20.3821 20.2487 
20.6613 20.5817 20.4266 20.2701 20.1453 20.0599 20.0091 19.9839 19.9749 19.9749 19.9789 19.9839 19.9883 19.9918 19.9943 19.996 19.997 19.9977 19.9982 19.9986 19.999 19.9992 19.9995 19.9996 19.9997 19.9998 19.9997 19.9996 19.9995 19.9993 19.9991 19.9987 19.9983 19.9976 19.9965 19.9948 19.9925 19.9894 19.9859 19.9828 19.9821 19.9871 20.0025 20.0348 20.0905 20.1738 20.281 20.3925 20.4606 20.3971 
20.5358 20.5276 20.4146 20.2789 20.1614 20.076 20.0221 19.993 19.9806 19.9781 19.9804 19.9845 19.9885 19.9918 19.9943 19.9959 19.997 19.9978 19.9983 19.9987 19.999 19.9992 19.9994 19.9996 19.9997 19.9997 19.9997 19.9996 19.9994 19.9992 19.999 19.9986 19.9982 19.9975 19.9964 19.9947 19.9923 19.989 19.9849 19.9808 19.9785 19.981 19.9933 20.0224 20.0763 20.1616 20.2791 20.4147 20.5277 20.5358 
20.3971 20.4605 20.3923 20.2809 20.1736 20.0903 20.0345 20.0022 19.9867 19.9817 19.9824 19.9854 19.9889 19.992 19.9944 19.996 19.9971 19.9979 19.9984 19.9988 19.9991 19.9993 19.9995 19.9997 19.9998 19.9998 19.9998 19.9997 19.9995 19.9993 19.999 19.9986 19.9982 19.9975 19.9964 19.9948 19.9923 19.9888 19.9843 19.9793 19.9753 19.9753 19.9842 20.0094 20.0601 20.1455 20.2703 20.4267 20.5817 20.6613 
20.2487 20.3821 20.3604 20.2758 20.1814 20.1022 20.0459 20.0112 19.993 19.9857 19.9847 19.9866 19.9895 19.9923 19.9946 19.9962 19.9973 19.9981 19.9986 19.9989 19.9992 19.9995 19.9997 19.9998 19.9999 20 19.9999 19.9998 19.9996 19.9994 19.9991 19.9987 19.9982 19.9976 19.9965 19.9949 19.9925 19.9889 19.984 19.9782 19.9727 19.9701 19.9754 19.9961 20.0424 20.1257 20.2548 20.4282 20.6215 20.7705 
20.0941 20.2942 20.3196 20.2639 20.1847 20.1116 20.0562 20.02 19.9994 19.99 19.9873 19.9881 19.9904 19.9928 19.9949 19.9964 19.9975 19.9983 19.9988 19.9992 19.9995 19.9997 19.9999 20.0001 20.0002 20.0002 20.0002 20.0001 19.9999 19.9996 19.9993 19.9989 19.9984 19.9977 19.9968 19.9952 19.9928 19.9892 19.9841 19.9776 19.9707 19.9657 19.9672 19.9829 20.0236 20.1028 20.2329 20.4191 20.6459 20.8607 
19.9372 20.1991 20.2708 20.2455 20.1834 20.1182 20.0651 20.0281 20.0058 19.9945 19.9902 19.9899 19.9914 19.9934 19.9953 19.9968 19.9978 19.9986 19.9991 19.9995 19.9998 20 20.0002 20.0004 20.0005 20.0005 20.0005 20.0004 20.0002 19.9999 19.9996 19.9992 19.9987 19.998 19.9971 19.9957 19.9934 19.9898 19.9846 19.9776 19.9695 19.9621 19.9598 19.9701 20.0042 20.0773 20.2054 20.3997 20.6544 20.9298 
19.7819 20.0991 20.2154 20.2211 20.1776 20.1218 20.0723 20.0356 20.0121 19.9991 19.9933 19.9918 19.9926 19.9941 19.9957 19.9971 19.9981 19.9989 19.9994 19.9998 20.0001 20.0003 20.0005 20.0007 20.0008 20.0009 20.0009 20.0007 20.0005 20.0003 19.9999 19.9995 19.999 19.9984 19.9976 19.9963 19.9941 19.9907 19.9855 19.9782 19.969 19.9594 19.9534 19.958 19.9847 20.0499 20.1728 20.3704 20.6468 20.9759 
19.6319 19.9966 20.1547 20.1912 20.1674 20.1225 20.0777 20.0421 20.0179 20.0036 19.9965 19.9939 19.9939 19.9949 19.9962 19.9974 19.9984 19.9991 19.9996 20 20.0003 20.0006 20.0008 20.001 20.0012 20.0012 20.0012 20.0011 20.0009 20.0006 20.0003 19.9999 19.9994 19.9989 19.9981 19.997 19.9951 19.9919 19.9868 19.9793 19.9693 19.9578 19.9482 19.947 19.9657 20.0213 20.1359 20.3321 20.6233 20.998 
19.491 19.8942 20.0902 20.1566 20.1531 20.1201 20.0812 20.0476 20.0233 20.008 19.9997 19.9961 19.9952 19.9957 19.9967 19.9977 19.9986 19.9992 19.9997 20.0001 20.0004 20.0007 20.001 20.0012 20.0014 20.0015 20.0015 20.0015 20.0013 20.0011 20.0007 20.0004 20 19.9995 19.9989 19.9979 19.9963 19.9934 19.9886 19.9811 19.9705 19.9574 19.9443 19.9374 19.9475 19.9923 20.0958 20.2856 20.5845 20.9956 
19.3626 19.7945 20.0235 20.1181 20.135 20.1147 20.0826 20.0519 20.0281 20.0121 20.0027 19.9981 19.9965 19.9964 19.997 19.9978 19.9985 19.9991 19.9996 20 20.0003 20.0006 20.0009 20.0012 20.0015 20.0017 20.0018 20.0018 20.0017 20.0016 20.0013 20.001 20.0007 20.0003 19.9999 19.9992 19.9979 19.9954 19.9909 19.9836 19.9726 19.9582 19.942 19.9294 19.9308 19.9635 20.0533 20.2321 20.5313 20.9686 
19.2499 19.6997 19.9561 20.0766 20.1135 20.1064 20.0818 20.0547 20.0319 20.0156 20.0054 19.9999 19.9974 19.9967 19.9969 19.9974 19.998 19.9985 19.999 19.9994 19.9998 20.0002 20.0006 20.0011 20.0014 20.0018 20.002 20.0022 20.0023 20.0023 20.0021 20.002 20.0018 20.0016 20.0013 20.0009 19.9999 19.9978 19.9938 19.9868 19.9757 19.9602 19.9414 19.9234 19.9158 19.9357 20.0096 20.1729 20.465 20.9178 
19.1557 19.6123 19.8897 20.0331 20.0889 20.0952 20.0787 20.0557 20.0344 20.0182 20.0074 20.001 19.9978 19.9965 19.9962 19.9965 19.9969 19.9974 19.9979 19.9984 19.999 19.9995 20.0001 20.0007 20.0014 20.0019 20.0024 20.0028 20.0031 20.0033 20.0034 20.0034 20.0034 20.0034 20.0033 20.0031 20.0025 20.0009 19.9974 19.9908 19.9798 19.9636 19.9423 19.9193 19.903 19.9095 19.9656 20.1094 20.3872 20.8443 
19.0822 19.5342 19.8256 19.9882 20.0614 20.0808 20.0728 20.0544 20.0352 20.0194 20.0082 20.0011 19.9972 19.9953 19.9947 19.9947 19.9951 19.9956 19.9963 19.997 19.9978 19.9986 19.9995 20.0005 20.0015 20.0024 20.0033 20.0041 20.0047 20.0052 20.0055 20.0058 20.0059 20.0061 20.0062 20.0062 20.0059 20.0046 20.0016 19.9955 19.9847 19.968 19.9447 19.9172 19.8924 19.8853 19.9222 20.043 20.2998 20.7501 
19.0314 19.4673 19.7652 19.9427 20.0313 20.0631 20.0636 20.0502 20.0335 20.0185 20.0072 19.9997 19.9952 19.9929 19.992 19.992 19.9925 19.9932 19.9942 19.9953 19.9965 19.9979 19.9993 20.0008 20.0024 20.0038 20.0052 20.0064 20.0075 20.0083 20.0089 20.0094 20.0097 20.0099 20.0101 20.0102 20.01 20.0089 20.0062 20.0005 19.99 19.973 19.9481 19.9166 19.8838 19.8633 19.8802 19.9751 20.2048 20.6374 
19.0044 19.4129 19.7094 19.897 19.9985 20.0417 20.0504 20.0424 20.0285 20.0148 20.0038 19.9962 19.9915 19.9891 19.9883 19.9885 19.9893 19.9906 19.9922 19.994 19.996 19.9982 20.0004 20.0027 20.0049 20.007 20.009 20.0108 20.0122 20.0133 20.0142 20.0147 20.015 20.015 20.015 20.0149 20.0145 20.0133 20.0107 20.0051 19.9949 19.9776 19.9516 19.9166 19.8766 19.8432 19.8399 19.907 20.1043 20.509 
19.002 19.3721 19.6591 19.8514 19.9628 20.0159 20.0326 20.03 20.0195 20.0076 19.9976 19.9904 19.9861 19.9841 19.9839 19.9848 19.9865 19.9888 19.9915 19.9944 19.9976 20.0008 20.0041 20.0073 20.0104 20.0133 20.0158 20.0179 20.0196 20.0208 20.0215 20.0217 20.0216 20.0211 20.0204 20.0195 20.0184 20.0167 20.0137 20.008 19.9977 19.9804 19.9535 19.9159 19.8697 19.8245 19.8015 19.8397 20.0004 20.3681 
19.0241 19.3455 19.6148 19.8062 19.9239 19.9853 20.0095 20.0127 20.0062 19.997 19.9887 19.983 19.9799 19.9792 19.9803 19.9827 19.986 19.9899 19.9942 19.9987 20.0033 20.0079 20.0124 20.0166 20.0204 20.0238 20.0266 20.0287 20.0301 20.0308 20.0308 20.03 20.0286 20.0268 20.0247 20.0224 20.0199 20.017 20.013 20.0068 19.9963 19.979 19.9517 19.9124 19.8615 19.8061 19.7647 19.7741 19.8954 20.2181 
19.0702 19.3335 19.5771 19.7618 19.8824 19.9502 19.9815 19.9908 19.9892 19.9839 19.9788 19.9758 19.9752 19.977 19.9805 19.9853 19.991 19.9972 20.0036 20.01 20.0163 20.0222 20.0276 20.0324 20.0364 20.0396 20.0419 20.043 20.0432 20.0422 20.0403 20.0374 20.0338 20.0296 20.025 20.0203 20.0156 20.0107 20.0053 19.9982 19.9875 19.9704 19.9436 19.9039 19.8502 19.787 19.7296 19.7112 19.7916 20.0628 
19.1393 19.3366 19.5472 19.7197 19.8397 19.9124 19.9505 19.9667 19.9715 19.9718 19.9717 19.9731 19.9767 19.9823 19.9894 19.9976 20.0064 20.0152 20.0239 20.0321 20.0396 20.0462 20.0517 20.0559 20.0589 20.0604 20.0605 20.059 20.0562 20.0519 20.0464 20.0398 20.0324 20.0244 20.0163 20.0082 20.0006 19.9933 19.9862 19.9782 19.9677 19.9517 19.9267 19.8887 19.8349 19.7671 19.6969 19.6531 19.6919 19.9059 
19.2295 19.3556 19.5277 19.6836 19.8002 19.8767 19.9218 19.9463 19.9594 19.9675 19.9745 19.9825 19.9919 20.0027 20.0145 20.0266 20.0385 20.0498 20.06 20.0688 20.076 20.0814 20.0849 20.0863 20.0857 20.0829 20.0782 20.0715 20.0631 20.0531 20.0418 20.0296 20.0168 20.0038 19.9912 19.9792 19.9685 19.959 19.9508 19.943 19.9339 19.921 19.9002 19.8669 19.8167 19.7487 19.6699 19.6036 19.6005 19.7513 
19.3387 19.3928 19.5241 19.6609 19.7727 19.8528 19.9061 19.9408 19.9644 19.9827 19.9991 20.0153 20.0319 20.0485 20.0649 20.0802 20.094 20.1057 20.115 20.1216 20.1253 20.1259 20.1235 20.1181 20.1098 20.0988 20.0855 20.07 20.0528 20.0343 20.015 19.9954 19.9761 19.9575 19.9404 19.9253 19.9126 19.9028 19.8957 19.8906 19.8862 19.8797 19.8671 19.8431 19.802 19.7394 19.6573 19.5716 19.5248 19.6029 
19.4642 19.4534 19.5468 19.6657 19.7733 19.8582 19.9214 19.9682 20.0046 20.0349 20.0618 20.0868 20.11 20.1312 20.1498 20.1652 20.177 20.1846 20.1878 20.1865 20.1807 20.1704 20.156 20.1378 20.1163 20.0919 20.0652 20.037 20.0079 19.9785 19.9498 19.9223 19.8968 19.8741 19.8548 19.8396 19.8289 19.8231 19.8221 19.8252 19.831 19.8368 19.8386 19.8305 19.8053 19.7555 19.6768 19.5747 19.4785 19.4642 
19.6029 19.5476 19.6148 19.7216 19.8283 19.9199 19.9945 20.0547 20.1042 20.1461 20.1821 20.2131 20.239 20.2595 20.2741 20.2823 20.2839 20.2786 20.2667 20.2482 20.2237 20.1937 20.1589 20.1203 20.0788 20.0353 19.991 19.9469 19.9041 19.8637 19.8266 19.7939 19.7664 19.7447 19.7296 19.7216 19.721 19.7277 19.7416 19.7618 19.7867 19.8135 19.8381 19.8544 19.854 19.8264 19.76 19.6458 19.4892 19.3387 
19.7513 19.6959 19.7599 19.8656 19.9758 20.0755 20.1608 20.2321 20.2911 20.3393 20.3773 20.4056 20.4239 20.4321 20.4299 20.4175 20.3949 20.3628 20.3218 20.2729 20.2174 20.1565 20.0918 20.0248 19.9573 19.8908 19.8271 19.7676 19.7138 19.6671 19.6285 19.5992 19.5798 19.5708 19.5727 19.5853 19.6085 19.6418 19.6842 19.7344 19.7903 19.8491 19.9065 19.9566 19.9907 19.9966 19.956 19.8419 19.6161 19.2295 
19.9059 19.9396 20.033 20.1496 20.2654 20.3699 20.4591 20.5319 20.5882 20.628 20.6514 20.6585 20.6494 20.6245 20.5843 20.5298 20.4625 20.3838 20.2956 20.2003 20.1 19.9973 19.8946 19.7946 19.6996 19.6121 19.5341 19.4675 19.4141 19.3751 19.3515 19.3439 19.3525 19.377 19.4171 19.4716 19.5393 19.6186 19.7075 19.8036 19.9041 20.0057 20.1045 20.1951 20.2707 20.3208 20.3268 20.2506 19.9974 19.1393 
20.0628 20.3681 20.509 20.6374 20.7501 20.8443 20.9178 20.9686 20.9956 20.998 20.9759 20.9298 20.8607 20.7705 20.6613 20.5358 20.3971 20.2487 20.0941 19.9372 19.7819 19.6319 19.491 19.3626 19.2499 19.1557 19.0822 19.0314 19.0044 19.002 19.0241 19.0702 19.1393 19.2295 19.3387 19.4642 19.6029 19.7513 19.9059 20.0628 20.2181 20.3681 20.509 20.6374 20.7501 20.8443 20.9178 20.9686 20.9956 19.0702 
