# vtk DataFile Version 3.0
Temperature distribution on a 2D grid
ASCII

DATASET STRUCTURED_POINTS
DIMENSIONS 50 50 1
ORIGIN 0.0 0.0 0.0
SPACING 0.01 0.01 1.0

POINT_DATA 2500
SCALARS temperature double
LOOKUP_TABLE default
19.491 20.6374 20.7501 20.8443 20.9178 20.9686 20.9956 20.998 20.9759 20.9298 20.8607 20.7705 20.6613 20.5358 20.3971 20.2487 20.0941 19.9372 19.7819 19.6319 19.491 19.3626 19.2499 19.1557 19.0822 19.0314 19.0044 19.002 19.0241 19.0702 19.1393 19.2295 19.3387 19.4642 19.6029 19.7513 19.9059 20.0628 20.2181 20.3681 20.509 20.6374 20.7501 20.8443 20.9178 20.9686 20.9956 20.998 20.9759 20.8607 
19.6319 20.1444 20.369 20.4975 20.5699 20.6031 20.6059 20.5838 20.5409 20.4809 20.4067 20.3213 20.2275 20.1278 20.0249 19.9216 19.8202 19.7233 19.6333 19.5524 19.4826 19.4254 19.3825 19.3547 19.3429 19.3472 19.3676 19.4035 19.4542 19.5183 19.5942 19.6802 19.774 19.8735 19.9761 20.0793 20.1806 20.2775 20.3674 20.4478 20.5164 20.571 20.61 20.6322 20.6381 20.6311 20.6192 20.6181 20.6552 20.7705 
19.7819 19.9364 20.0832 20.1927 20.2612 20.2936 20.2964 20.2758 20.2376 20.1865 20.1267 20.0615 19.9937 19.9256 19.8593 19.7967 19.7391 19.6882 19.6451 19.6107 19.5861 19.5716 19.5677 19.5744 19.5917 19.6189 19.6556 19.7007 19.7532 19.8118 19.875 19.9414 20.0092 20.0768 20.1426 20.2051 20.2625 20.3135 20.3564 20.3898 20.4121 20.4218 20.4178 20.3998 20.37 20.335 20.3094 20.3206 20.4146 20.6613 
19.9372 19.8713 19.9147 19.9827 20.0399 20.0746 20.0859 20.0773 20.0536 20.0198 19.9799 19.9374 19.8949 19.8544 19.8174 19.7851 19.7583 19.7377 19.7237 19.7166 19.7166 19.7235 19.7374 19.7576 19.7839 19.8155 19.8516 19.8913 19.9338 19.9778 20.0225 20.0666 20.1091 20.149 20.1854 20.2174 20.2441 20.2648 20.2786 20.2846 20.2814 20.2677 20.2424 20.2053 20.1588 20.1111 20.08 20.0995 20.2246 20.5358 
20.0941 19.8853 19.84 19.8639 19.9057 19.9412 19.9618 19.9667 19.9589 19.9424 19.9209 19.8976 19.875 19.8546 19.8378 19.825 19.8169 19.8136 19.815 19.8211 19.8317 19.8466 19.8652 19.8871 19.9119 19.9388 19.9672 19.9964 20.0256 20.0543 20.0816 20.107 20.1298 20.1495 20.1657 20.1781 20.1862 20.1898 20.1884 20.181 20.1667 20.1438 20.1107 20.0666 20.0134 19.9591 19.9223 19.9391 20.0687 20.3971 
20.2487 19.9443 19.8301 19.8145 19.8396 19.8732 19.9004 19.9164 19.9217 19.9191 19.9117 19.9023 19.8931 19.8857 19.8808 19.879 19.8804 19.8851 19.8929 19.9034 19.9164 19.9316 19.9485 19.9666 19.9856 20.0049 20.0241 20.0426 20.0602 20.0762 20.0904 20.1024 20.112 20.1189 20.1232 20.1247 20.1233 20.1191 20.1116 20.1001 20.0833 20.0592 20.0257 19.9809 19.9255 19.8661 19.8202 19.8234 19.9363 20.2487 
20.3971 20.0279 19.8608 19.8112 19.8192 19.8482 19.8785 19.9018 19.9164 19.9235 19.9256 19.9251 19.9239 19.9235 19.9247 19.9278 19.933 19.9401 19.9489 19.9591 19.9705 19.9826 19.9952 20.008 20.0205 20.0326 20.0438 20.054 20.0628 20.07 20.0756 20.0793 20.0812 20.0812 20.0795 20.0762 20.0713 20.065 20.0568 20.0461 20.0313 20.0101 19.9796 19.9369 19.881 19.8163 19.758 19.7396 19.8208 20.0941 
20.5358 20.1228 19.9148 19.8355 19.8263 19.8482 19.8782 19.9051 19.9252 19.9383 19.9461 19.9506 19.9536 19.9564 19.9599 19.9643 19.9699 19.9764 19.9838 19.9917 20 20.0084 20.0166 20.0243 20.0315 20.038 20.0434 20.0478 20.051 20.053 20.0536 20.053 20.0511 20.0482 20.0444 20.0399 20.0348 20.0293 20.0231 20.0154 20.0045 19.9877 19.9614 19.9217 19.8658 19.7955 19.723 19.6782 19.7185 19.9372 
20.6613 20.2204 19.9803 19.8747 19.8482 19.8608 19.8877 19.9152 19.9377 19.9539 19.9647 19.9717 19.9764 19.9803 19.984 19.9879 19.9924 19.9972 20.0024 20.0077 20.0129 20.0179 20.0224 20.0265 20.0299 20.0325 20.0344 20.0354 20.0355 20.0347 20.0331 20.0307 20.0276 20.024 20.0202 20.0163 20.0126 20.0091 20.0057 20.0014 19.9947 19.9825 19.9608 19.9243 19.8687 19.7932 19.7061 19.633 19.6275 19.7819 
20.7705 20.3147 20.0499 19.9209 19.877 19.8789 19.9003 19.9261 19.9489 19.9662 19.9782 19.9862 19.9914 19.9951 19.9982 20.001 20.004 20.007 20.0101 20.0131 20.0159 20.0184 20.0205 20.0221 20.0231 20.0236 20.0235 20.0228 20.0215 20.0197 20.0174 20.0147 20.0117 20.0086 20.0057 20.003 20.001 19.9997 19.9989 19.9979 19.995 19.9871 19.9696 19.9366 19.8819 19.8021 19.7014 19.6005 19.5477 19.6319 
20.8607 20.4018 20.1189 19.9694 19.9085 19.8986 19.913 19.9353 19.9569 19.9741 19.9864 19.9945 19.9996 20.0028 20.0051 20.0069 20.0085 20.01 20.0115 20.0128 20.014 20.0149 20.0155 20.0157 20.0155 20.015 20.0141 20.0128 20.0112 20.0093 20.0071 20.0048 20.0025 20.0002 19.9983 19.9969 19.9964 19.9969 19.9983 19.9999 20.0001 19.9959 19.9825 19.9531 19.9003 19.8176 19.7055 19.5788 19.4795 19.491 
20.9298 20.4789 20.1845 20.0177 19.9406 19.9184 19.9248 19.9425 19.9618 19.9781 19.9901 19.9981 20.0029 20.0058 20.0073 20.0083 20.0089 20.0094 20.0098 20.0102 20.0104 20.0104 20.0102 20.0098 20.0091 20.0083 20.0072 20.0059 20.0045 20.0029 20.0012 19.9996 19.9979 19.9965 19.9955 19.9951 19.9956 19.9974 20.0003 20.0039 20.0067 20.0057 19.9962 19.9709 19.9208 19.8373 19.7165 19.5672 19.4241 19.3626 
20.9759 20.5437 20.2447 20.0642 19.9723 19.938 19.9358 19.9482 19.9646 19.9795 19.9909 19.9986 20.0033 20.0058 20.007 20.0074 20.0075 20.0074 20.0072 20.007 20.0067 20.0064 20.0059 20.0053 20.0046 20.0038 20.0029 20.0019 20.0008 19.9997 19.9985 19.9974 19.9963 19.9955 19.9951 19.9954 19.9966 19.9991 20.003 20.0079 20.0127 20.0147 20.009 19.9881 19.942 19.8598 19.7335 19.5656 19.3824 19.2499 
20.998 20.5948 20.2981 20.1079 20.0033 19.9574 19.9465 19.9532 19.9663 19.9795 19.9901 19.9975 20.0021 20.0045 20.0055 20.0058 20.0056 20.0052 20.0048 20.0043 20.0039 20.0034 20.0029 20.0024 20.0018 20.0012 20.0005 19.9998 19.9991 19.9984 19.9977 19.997 19.9964 19.9959 19.9959 19.9964 19.9979 20.0007 20.0052 20.0111 20.0175 20.0221 20.0202 20.0041 19.9632 19.8845 19.7559 19.5739 19.3555 19.1557 
20.9956 20.6309 20.3437 20.1483 20.0332 19.9767 19.9574 19.9582 19.9676 19.9788 19.9886 19.9957 20.0003 20.0027 20.0038 20.004 20.0037 20.0033 20.0028 20.0023 20.0019 20.0015 20.0011 20.0007 20.0003 19.9999 19.9995 19.9991 19.9987 19.9983 19.9978 19.9974 19.997 19.9968 19.9968 19.9975 19.999 20.0019 20.0065 20.013 20.0208 20.0277 20.0295 20.0188 19.9841 19.9108 19.7834 19.592 19.3441 19.0822 
20.9686 20.6514 20.3804 20.1845 20.0618 19.996 19.9686 19.9635 19.9692 19.9783 19.987 19.9938 19.9984 20.001 20.0022 20.0025 20.0023 20.0019 20.0015 20.0011 20.0007 20.0004 20.0001 19.9999 19.9997 19.9994 19.9992 19.999 19.9988 19.9986 19.9984 19.9981 19.9979 19.9977 19.9977 19.9982 19.9996 20.0023 20.007 20.0138 20.0226 20.0316 20.0371 20.0319 20.0044 19.9385 19.8156 19.6197 19.3487 19.0314 
20.9178 20.6557 20.4076 20.216 20.0885 20.0151 19.9804 19.9696 19.9713 19.9782 19.9858 19.9922 19.9967 19.9994 20.0008 20.0013 20.0013 20.0011 20.0007 20.0004 20.0001 19.9999 19.9998 19.9996 19.9995 19.9994 19.9994 19.9993 19.9992 19.9991 19.999 19.9988 19.9985 19.9983 19.9982 19.9986 19.9997 20.0021 20.0066 20.0136 20.0231 20.0341 20.0432 20.0436 20.024 19.9672 19.8519 19.6565 19.3691 19.0044 
20.8443 20.6438 20.4247 20.2421 20.113 20.0338 19.9926 19.9763 19.9742 19.9787 19.9851 19.9909 19.9953 19.9982 19.9998 20.0005 20.0006 20.0005 20.0003 20.0001 19.9999 19.9998 19.9997 19.9996 19.9996 19.9996 19.9996 19.9996 19.9996 19.9996 19.9995 19.9993 19.999 19.9987 19.9985 19.9986 19.9994 20.0015 20.0056 20.0126 20.0227 20.0353 20.0477 20.0539 20.0426 19.9964 19.8917 19.7015 19.405 19.002 
20.7501 20.6161 20.4313 20.2621 20.1347 20.0516 20.005 19.9838 19.9779 19.9799 19.9848 19.9901 19.9943 19.9972 19.999 19.9999 20.0002 20.0002 20.0001 20 19.9999 19.9998 19.9998 19.9998 19.9998 19.9998 19.9999 19.9999 19.9999 19.9999 19.9998 19.9996 19.9993 19.9989 19.9986 19.9984 19.9989 20.0006 20.0043 20.011 20.0214 20.0353 20.0509 20.0626 20.06 20.0256 19.9339 19.7539 19.4555 19.0241 
20.6374 20.5732 20.4274 20.2758 20.1531 20.0682 20.0173 19.9916 19.9822 19.9817 19.9851 19.9896 19.9936 19.9965 19.9984 19.9995 19.9999 20.0001 20.0001 20 19.9999 19.9999 19.9999 19.9999 19.9999 20 20.0001 20.0001 20.0001 20.0001 20 19.9998 19.9995 19.999 19.9985 19.9981 19.9982 19.9995 20.0027 20.0091 20.0195 20.0345 20.0527 20.0697 20.0759 20.0541 19.9778 19.8122 19.5194 19.0702 
20.509 20.5161 20.4129 20.2827 20.1677 20.0832 20.0293 19.9998 19.987 19.984 19.9859 19.9895 19.9931 19.996 19.9979 19.9991 19.9997 20 20 20 20 20 20 20 20 20.0001 20.0002 20.0002 20.0002 20.0002 20.0001 19.9999 19.9996 19.999 19.9984 19.9978 19.9976 19.9984 20.0011 20.0069 20.0172 20.0327 20.0532 20.0752 20.09 20.0812 20.0222 19.8752 19.5952 19.1393 
20.3681 20.4464 20.3882 20.2826 20.1783 20.0962 20.0406 20.008 19.9922 19.9868 19.987 19.9897 19.9929 19.9956 19.9976 19.9988 19.9996 19.9999 20 20 20 20 20 20.0001 20.0001 20.0002 20.0002 20.0003 20.0003 20.0003 20.0002 20 19.9996 19.999 19.9983 19.9975 19.997 19.9973 19.9994 20.0045 20.0144 20.0302 20.0525 20.0787 20.1018 20.1064 20.0661 19.9413 19.6809 19.2295 
20.2181 20.3657 20.354 20.2756 20.1845 20.1068 20.0509 20.0161 19.9976 19.9899 19.9885 19.9902 19.9928 19.9953 19.9973 19.9986 19.9994 19.9998 20 20.0001 20.0001 20.0001 20.0001 20.0001 20.0001 20.0002 20.0002 20.0003 20.0003 20.0003 20.0002 20 19.9996 19.999 19.9982 19.9972 19.9964 19.9963 19.9977 20.0021 20.0113 20.027 20.0504 20.0804 20.1112 20.129 20.1084 20.0089 19.7744 19.3387 
20.0628 20.276 20.3111 20.2618 20.1862 20.1148 20.06 20.0238 20.003 19.9933 19.9903 19.9909 19.9929 19.9952 19.997 19.9984 19.9992 19.9997 19.9999 20 20.0001 20.0001 20.0001 20.0001 20.0001 20.0002 20.0002 20.0002 20.0003 20.0003 20.0002 20 19.9996 19.999 19.9982 19.9971 19.996 19.9954 19.9961 19.9996 20.0079 20.0231 20.0472 20.0801 20.1178 20.1484 20.148 20.0762 19.8736 19.4642 
19.9059 20.1796 20.2606 20.2416 20.1833 20.12 20.0676 20.0309 20.0084 19.9968 19.9924 19.9919 19.9932 19.9951 19.9969 19.9982 19.9991 19.9996 19.9999 20 20.0001 20.0001 20.0001 20.0001 20.0001 20.0001 20.0002 20.0002 20.0002 20.0002 20.0002 20 19.9997 19.9991 19.9982 19.997 19.9957 19.9946 19.9946 19.9972 20.0044 20.0187 20.0428 20.0779 20.1216 20.1642 20.184 20.1417 19.9758 19.6029 
19.7513 20.0786 20.2036 20.2154 20.1758 20.1222 20.0736 20.0372 20.0136 20.0005 19.9946 19.993 19.9937 19.9952 19.9968 19.998 19.9989 19.9995 19.9998 20 20.0001 20.0001 20.0001 20.0001 20.0001 20.0001 20.0002 20.0002 20.0002 20.0002 20.0002 20 19.9997 19.9992 19.9983 19.997 19.9954 19.9939 19.9933 19.9948 20.0007 20.0138 20.0374 20.0738 20.1224 20.176 20.2155 20.2037 20.0787 19.7513 
19.6029 19.9758 20.1416 20.1839 20.1641 20.1214 20.0777 20.0426 20.0185 20.0041 19.9969 19.9944 19.9943 19.9954 19.9967 19.9979 19.9988 19.9994 19.9998 20 20.0001 20.0001 20.0001 20.0001 20.0001 20.0001 20.0001 20.0001 20.0002 20.0002 20.0002 20.0001 19.9998 19.9993 19.9984 19.9971 19.9954 19.9935 19.9921 19.9926 19.9971 20.0086 20.0311 20.0678 20.1201 20.1834 20.2417 20.2606 20.1796 19.9059 
19.4642 19.8735 20.0762 20.148 20.1483 20.1177 20.08 20.047 20.0229 20.0077 19.9994 19.9958 19.9951 19.9957 19.9968 19.9979 19.9988 19.9994 19.9998 20 20.0001 20.0001 20.0001 20.0001 20.0001 20.0001 20.0001 20.0001 20.0001 20.0001 20.0001 20.0001 19.9999 19.9994 19.9986 19.9972 19.9954 19.9931 19.9911 19.9905 19.9935 20.0032 20.024 20.0602 20.115 20.1863 20.2619 20.3112 20.2761 20.0628 
19.3387 19.7744 20.0088 20.1083 20.1289 20.111 20.0803 20.0503 20.0268 20.011 20.0019 19.9974 19.996 19.9961 19.997 19.9979 19.9987 19.9993 19.9997 19.9999 20 20.0001 20.0001 20.0001 20 20 20 20 20.0001 20.0001 20.0001 20.0001 19.9999 19.9995 19.9987 19.9974 19.9955 19.993 19.9904 19.9887 19.9901 19.9978 20.0163 20.0511 20.107 20.1847 20.2757 20.3541 20.3658 20.2181 
19.2295 19.6808 19.9413 20.0661 20.1063 20.1017 20.0786 20.0523 20.0301 20.0142 20.0043 19.9991 19.997 19.9967 19.9972 19.998 19.9987 19.9993 19.9997 19.9999 20 20 20 20 20 19.9999 19.9999 19.9999 20 20 20 20.0001 20 19.9997 19.999 19.9977 19.9958 19.9931 19.9899 19.9873 19.987 19.9924 20.0083 20.0408 20.0964 20.1785 20.2827 20.3883 20.4465 20.3681 
19.1393 19.5951 19.8752 20.0222 20.0812 20.0899 20.0751 20.0531 20.0326 20.017 20.0067 20.0008 19.9981 19.9973 19.9975 19.9981 19.9987 19.9992 19.9996 19.9998 19.9999 19.9999 19.9999 19.9999 19.9998 19.9998 19.9998 19.9998 19.9998 19.9999 20 20 20 19.9998 19.9992 19.9981 19.9962 19.9933 19.9897 19.9861 19.9842 19.9872 20.0001 20.0296 20.0834 20.1679 20.2828 20.413 20.5162 20.509 
19.0702 19.5194 19.8122 19.9778 20.0541 20.0759 20.0697 20.0526 20.0343 20.0194 20.0089 20.0025 19.9992 19.9979 19.9977 19.9981 19.9986 19.999 19.9994 19.9996 19.9997 19.9997 19.9997 19.9997 19.9996 19.9996 19.9996 19.9996 19.9997 19.9998 19.9999 20.0001 20.0001 20 19.9996 19.9986 19.9968 19.9939 19.9899 19.9854 19.982 19.9825 19.992 20.0176 20.0685 20.1533 20.2759 20.4275 20.5732 20.6374 
19.0241 19.4555 19.7539 19.9339 20.0256 20.06 20.0625 20.0507 20.0352 20.0212 20.0107 20.004 20.0002 19.9984 19.9979 19.998 19.9984 19.9987 19.999 19.9992 19.9993 19.9994 19.9994 19.9994 19.9994 19.9994 19.9994 19.9995 19.9996 19.9998 19.9999 20.0002 20.0004 20.0004 20.0002 19.9993 19.9976 19.9947 19.9905 19.9853 19.9803 19.9783 19.9841 20.0054 20.0519 20.1349 20.2623 20.4315 20.6161 20.7501 
19.002 19.405 19.7015 19.8916 19.9963 20.0425 20.0537 20.0475 20.0349 20.0223 20.0121 20.0051 20.0009 19.9987 19.9979 19.9977 19.9979 19.9982 19.9985 19.9987 19.9988 19.9989 19.999 19.999 19.9991 19.9992 19.9993 19.9994 19.9996 19.9999 20.0002 20.0005 20.0008 20.001 20.0009 20.0003 19.9988 19.9959 19.9915 19.9857 19.9793 19.9748 19.9768 19.993 20.0341 20.1132 20.2422 20.4248 20.6438 20.8443 
19.0044 19.369 19.6563 19.8517 19.9669 20.0236 20.0432 20.0426 20.0335 20.0224 20.0128 20.0057 20.0012 19.9987 19.9975 19.9972 19.9972 19.9975 19.9977 19.998 19.9982 19.9984 19.9986 19.9987 19.9989 19.9992 19.9994 19.9997 20 20.0004 20.0008 20.0012 20.0016 20.002 20.0021 20.0016 20.0003 19.9975 19.993 19.9866 19.9789 19.9719 19.9701 19.9808 20.0154 20.0887 20.2161 20.4077 20.6557 20.9178 
19.0314 19.3485 19.6193 19.8151 19.9378 20.0035 20.031 20.0361 20.0305 20.0213 20.0125 20.0056 20.0009 19.9981 19.9967 19.9962 19.9962 19.9965 19.9969 19.9972 19.9976 19.998 19.9984 19.9988 19.9992 19.9996 20 20.0005 20.0009 20.0014 20.0019 20.0025 20.003 20.0034 20.0036 20.0033 20.0021 19.9994 19.9948 19.9879 19.979 19.9697 19.9639 19.9689 19.9961 20.0618 20.1845 20.3803 20.6513 20.9686 
19.0822 19.3437 19.5912 19.7823 19.9094 19.9825 20.017 20.0276 20.0257 20.0187 20.0109 20.0044 19.9998 19.9969 19.9955 19.995 19.9951 19.9955 19.9961 19.9968 19.9974 19.9981 19.9988 19.9995 20.0002 20.0009 20.0015 20.0021 20.0027 20.0033 20.0039 20.0044 20.005 20.0054 20.0056 20.0053 20.0041 20.0015 19.9967 19.9893 19.9793 19.9678 19.9581 19.9571 19.9763 20.0328 20.1479 20.3433 20.6307 20.9956 
19.1557 19.3548 19.5725 19.754 19.8821 19.9605 20.0011 20.017 20.0189 20.0143 20.008 20.0022 19.998 19.9953 19.9941 19.9939 19.9943 19.995 19.996 19.9971 19.9983 19.9994 20.0005 20.0016 20.0026 20.0035 20.0043 20.0051 20.0057 20.0063 20.0067 20.0072 20.0075 20.0077 20.0077 20.0072 20.0059 20.0031 19.9981 19.9903 19.9792 19.9656 19.9522 19.9453 19.9561 20.002 20.1068 20.2973 20.5943 20.998 
19.2499 19.3812 19.5634 19.7304 19.856 19.9377 19.9835 20.0043 20.0101 20.0083 20.0038 19.9992 19.9958 19.9938 19.9932 19.9935 19.9945 19.9959 19.9976 19.9993 20.001 20.0027 20.0042 20.0056 20.0069 20.008 20.0089 20.0095 20.01 20.0103 20.0104 20.0103 20.0101 20.0098 20.0093 20.0083 20.0065 20.0034 19.998 19.9897 19.9777 19.9623 19.9456 19.9329 19.9351 19.9697 20.062 20.2432 20.5429 20.9759 
19.3626 19.4224 19.5641 19.7121 19.832 19.9148 19.9646 19.9899 19.9998 20.0013 19.9992 19.9964 19.9944 19.9936 19.994 19.9953 19.9973 19.9996 20.0021 20.0045 20.0069 20.009 20.0109 20.0125 20.0138 20.0147 20.0152 20.0154 20.0153 20.0148 20.014 20.013 20.0118 20.0104 20.0089 20.0071 20.0046 20.0008 19.9951 19.9863 19.9736 19.9568 19.9372 19.9194 19.9133 19.9362 20.0142 20.1821 20.4777 20.9298 
19.491 19.4775 19.5749 19.7 19.811 19.8929 19.9457 19.9754 19.9895 19.9948 19.9959 19.9957 19.9958 19.9968 19.9988 20.0015 20.0047 20.008 20.0113 20.0144 20.0172 20.0195 20.0213 20.0226 20.0232 20.0233 20.0228 20.0218 20.0203 20.0183 20.0159 20.0132 20.0104 20.0075 20.0046 20.0015 19.9979 19.9935 19.9873 19.9784 19.9654 19.9478 19.9263 19.9044 19.8909 19.9021 19.9646 20.1158 20.4003 20.8607 
19.6319 19.5456 19.5964 19.6958 19.7953 19.8747 19.9296 19.9635 19.9824 19.9922 19.9972 20.0003 20.0033 20.0066 20.0105 20.0148 20.0192 20.0234 20.0272 20.0304 20.0328 20.0345 20.0353 20.0351 20.0341 20.0323 20.0296 20.0263 20.0223 20.0178 20.0129 20.0078 20.0027 19.9978 19.993 19.9885 19.984 19.9791 19.9729 19.9644 19.9521 19.935 19.913 19.8885 19.869 19.8695 19.9158 20.0469 20.3134 20.7705 
19.7819 19.6264 19.6306 19.7028 19.7894 19.865 19.9215 19.9596 19.9837 19.9985 20.0082 20.0153 20.0214 20.0273 20.033 20.0385 20.0434 20.0476 20.0507 20.0527 20.0534 20.0527 20.0508 20.0476 20.0432 20.0377 20.0313 20.0241 20.0164 20.0083 20 19.9919 19.9841 19.977 19.9706 19.965 19.9602 19.9556 19.9506 19.9439 19.9339 19.9192 19.8989 19.8743 19.8511 19.8422 19.8721 19.9799 20.2208 20.6613 
19.9372 19.7202 19.6811 19.7268 19.8002 19.8717 19.9295 19.9718 20.0012 20.0215 20.0358 20.0468 20.0558 20.0634 20.0698 20.075 20.0787 20.0807 20.0808 20.0791 20.0754 20.0698 20.0626 20.0538 20.0436 20.0324 20.0203 20.0078 19.9951 19.9825 19.9705 19.9592 19.9492 19.9406 19.9337 19.9286 19.9252 19.9231 19.9215 19.9191 19.9142 19.9049 19.8895 19.8679 19.8439 19.8278 19.8414 19.9222 20.1281 20.5358 
20.0941 19.829 19.7543 19.7774 19.839 19.9065 19.9654 20.0114 20.0455 20.0702 20.0881 20.1013 20.1111 20.1179 20.1221 20.1236 20.1224 20.1184 20.1116 20.1022 20.0902 20.0761 20.06 20.0425 20.0239 20.0047 19.9854 19.9664 19.9483 19.9315 19.9164 19.9036 19.8932 19.8857 19.8812 19.8798 19.8814 19.8854 19.8912 19.8971 19.9013 19.9015 19.8951 19.8808 19.8599 19.8394 19.8367 19.8858 20.044 20.3971 
20.2487 19.9571 19.8605 19.8683 19.9211 19.985 20.0438 20.0915 20.1276 20.1536 20.1713 20.1825 20.1882 20.189 20.1853 20.1773 20.1651 20.1491 20.1295 20.1068 20.0815 20.0542 20.0255 19.9962 19.967 19.9386 19.9117 19.887 19.8651 19.8465 19.8317 19.8212 19.8153 19.814 19.8176 19.8258 19.8384 19.8546 19.8734 19.8932 19.9118 19.9265 19.934 19.9315 19.9179 19.8962 19.8777 19.889 19.9824 20.2487 
20.3971 20.1124 20.0148 20.0179 20.0654 20.1248 20.1799 20.224 20.2557 20.2757 20.2853 20.286 20.2787 20.2643 20.2434 20.2168 20.1849 20.1487 20.1088 20.0664 20.0223 19.9777 19.9337 19.8912 19.8515 19.8153 19.7838 19.7575 19.7373 19.7235 19.7166 19.7167 19.7239 19.7381 19.7589 19.7857 19.818 19.8545 19.8938 19.934 19.9726 20.0065 20.032 20.0453 20.0428 20.0233 19.9902 19.9583 19.9649 20.0941 
20.5358 20.3079 20.2372 20.2473 20.2907 20.3404 20.3829 20.4122 20.4269 20.4274 20.415 20.3909 20.3565 20.3131 20.2621 20.2047 20.1423 20.0766 20.009 19.9413 19.875 19.8117 19.7532 19.7007 19.6555 19.6189 19.5916 19.5744 19.5676 19.5716 19.5861 19.6108 19.6452 19.6885 19.7395 19.7971 19.8597 19.9257 19.9929 20.0591 20.1215 20.1768 20.2213 20.2507 20.2603 20.2453 20.2015 20.1269 20.028 19.9372 
20.6613 20.566 20.551 20.574 20.6064 20.6324 20.644 20.6382 20.6146 20.5739 20.5179 20.4484 20.3674 20.2773 20.1804 20.0791 19.9759 19.8734 19.7739 19.6801 19.5942 19.5182 19.4541 19.4035 19.3675 19.3471 19.3428 19.3547 19.3824 19.4254 19.4826 19.5525 19.6334 19.7235 19.8204 19.9218 20.0252 20.1278 20.2271 20.3201 20.404 20.4757 20.5321 20.5697 20.5846 20.5719 20.524 20.4257 20.24 19.7819 
20.7705 20.9298 20.9759 20.998 20.9956 20.9686 20.9178 20.8443 20.7501 20.6374 20.509 20.3681 20.2181 20.0628 19.9059 19.7513 19.6029 19.4642 19.3387 19.2295 19.1393 19.0702 19.0241 19.002 19.0044 19.0314 19.0822 19.1557 19.2499 19.3626 19.491 19.6319 19.7819 19.9372 20.0941 20.2487 20.3971 20.5358 20.6613 20.7705 20.8607 20.9298 20.9759 20.998 20.9956 20.9686 20.9178 20.8443 20.7501 19.6319 
