# vtk DataFile Version 3.0
Temperature distribution on a 2D grid
ASCII

DATASET STRUCTURED_POINTS
DIMENSIONS 50 50 1
ORIGIN 0.0 0.0 0.0
SPACING 0.01 0.01 1.0

POINT_DATA 2500
SCALARS temperature double
LOOKUP_TABLE default
20.6374 19.491 19.6319 19.7819 19.9372 20.0941 20.2487 20.3971 20.5358 20.6613 20.7705 20.8607 20.9298 20.9759 20.998 20.9956 20.9686 20.9178 20.8443 20.7501 20.6374 20.509 20.3681 20.2181 20.0628 19.9059 19.7513 19.6029 19.4642 19.3387 19.2295 19.1393 19.0702 19.0241 19.002 19.0044 19.0314 19.0822 19.1557 19.2499 19.3626 19.491 19.6319 19.7819 19.9372 20.0941 20.2487 20.3971 20.5358 20.7705 
20.7501 20.1797 20.0767 20.1034 20.1787 20.2697 20.3614 20.4458 20.5187 20.5775 20.6206 20.6473 20.6571 20.6502 20.627 20.5881 20.5347 20.468 20.3899 20.3022 20.207 20.1068 20.0039 19.901 19.8005 19.705 19.6167 19.5378 19.4704 19.416 19.376 19.3513 19.3427 19.3502 19.3738 19.4128 19.4661 19.5323 19.6099 19.6966 19.7904 19.8892 19.9913 20.0959 20.2032 20.3152 20.4354 20.567 20.7096 20.8607 
20.8443 20.4352 20.2652 20.2195 20.2348 20.2754 20.322 20.3642 20.3967 20.4171 20.4247 20.4197 20.4028 20.3748 20.337 20.2905 20.2367 20.177 20.113 20.0462 19.9783 19.911 19.8459 19.7847 19.7287 19.6794 19.6381 19.6057 19.583 19.5705 19.5687 19.5776 19.5969 19.6261 19.6645 19.7112 19.7648 19.8238 19.8866 19.9514 20.0165 20.0809 20.1441 20.2078 20.2758 20.355 20.4554 20.5867 20.7514 20.9298 
20.9178 20.5417 20.3321 20.2357 20.2059 20.2098 20.2264 20.2433 20.2543 20.2565 20.2492 20.233 20.2089 20.1782 20.1421 20.1021 20.0592 20.0149 19.9702 19.9263 19.8843 19.8451 19.8098 19.7793 19.7542 19.7351 19.7226 19.717 19.7183 19.7266 19.7417 19.7632 19.7906 19.8231 19.8601 19.9004 19.9429 19.9863 20.0293 20.0703 20.1082 20.1426 20.1743 20.2066 20.2461 20.3037 20.3948 20.5355 20.7343 20.9759 
20.9686 20.595 20.3539 20.2186 20.1544 20.1315 20.1285 20.1315 20.1328 20.129 20.1188 20.1025 20.0813 20.0563 20.0287 19.9999 19.9707 19.9422 19.9151 19.8901 19.868 19.8491 19.834 19.8231 19.8165 19.8145 19.817 19.8241 19.8355 19.8511 19.8703 19.8928 19.9181 19.9454 19.9741 20.0033 20.0322 20.0596 20.0845 20.1057 20.1224 20.1346 20.1437 20.154 20.174 20.2176 20.3042 20.4559 20.689 20.998 
20.9956 20.6273 20.3653 20.2013 20.1111 20.0686 20.0524 20.0479 20.046 20.0422 20.0347 20.0232 20.0086 19.9918 19.974 19.9561 19.9389 19.9232 19.9093 19.8977 19.8887 19.8826 19.8793 19.8791 19.8819 19.8877 19.8962 19.9073 19.9207 19.9361 19.9532 19.9715 19.9906 20.01 20.0292 20.0477 20.0646 20.0792 20.0906 20.0978 20.1001 20.0975 20.0918 20.0876 20.0942 20.1274 20.2098 20.3686 20.6284 20.9956 
20.998 20.6484 20.3781 20.1956 20.0867 20.0296 20.0041 19.9952 19.9927 19.9912 19.9879 19.9823 19.9745 19.9655 19.9559 19.9467 19.9383 19.9313 19.9261 19.9227 19.9212 19.9218 19.9244 19.9289 19.9352 19.9431 19.9524 19.9629 19.9744 19.9866 19.9991 20.0118 20.0243 20.0363 20.0476 20.0576 20.0659 20.0718 20.0745 20.073 20.0667 20.0554 20.0406 20.0268 20.0237 20.0475 20.1233 20.2826 20.5578 20.9686 
20.9759 20.6598 20.3938 20.2023 20.0809 20.0129 19.9804 19.9681 19.9656 19.9663 19.967 19.9663 19.9641 19.9609 19.9573 19.9539 19.9512 19.9496 19.9491 19.9499 19.9521 19.9555 19.9601 19.9657 19.9721 19.9793 19.9871 19.9951 20.0034 20.0116 20.0196 20.0272 20.0343 20.0407 20.0462 20.0506 20.0535 20.0543 20.0523 20.0464 20.0357 20.0199 19.9999 19.9797 19.9683 19.9825 20.0481 20.2004 20.4794 20.9178 
20.9298 20.6602 20.4098 20.2175 20.0888 20.013 19.9746 19.9592 19.9561 19.9582 19.9615 19.9643 19.9659 19.9666 19.9668 19.9669 19.9673 19.9683 19.9701 19.9726 19.9759 19.9798 19.9843 19.9892 19.9944 19.9998 20.0052 20.0106 20.0157 20.0205 20.0248 20.0287 20.032 20.0347 20.0367 20.0379 20.0379 20.0363 20.0323 20.0248 20.0127 19.995 19.9721 19.9472 19.9285 19.9319 19.9838 20.1224 20.394 20.8443 
20.8607 20.6479 20.4224 20.2363 20.105 20.0237 19.9802 19.9615 19.957 19.9593 19.9639 19.9686 19.9725 19.9754 19.9776 19.9795 19.9813 19.9834 19.9858 19.9885 19.9916 19.995 19.9985 20.0021 20.0057 20.0092 20.0125 20.0155 20.0182 20.0205 20.0223 20.0237 20.0248 20.0254 20.0256 20.0253 20.0243 20.0221 20.0178 20.0104 19.9984 19.9804 19.9561 19.9276 19.9018 19.8935 19.929 20.0479 20.3024 20.7501 
20.7705 20.6218 20.4285 20.2546 20.1245 20.0398 19.992 19.9697 19.963 19.9645 19.9693 19.9748 19.9796 19.9836 19.9867 19.9892 19.9915 19.9937 19.9959 19.9982 20.0006 20.003 20.0055 20.0078 20.0099 20.0119 20.0136 20.0149 20.016 20.0166 20.017 20.0171 20.0169 20.0165 20.016 20.0154 20.0143 20.0125 20.009 20.0026 19.9916 19.9742 19.9493 19.9178 19.8852 19.8648 19.8817 19.9764 20.2055 20.6374 
20.6613 20.5815 20.4262 20.2692 20.1438 20.0576 20.0062 19.9804 19.9711 19.971 19.9751 19.9804 19.9854 19.9896 19.993 19.9956 19.9978 19.9997 20.0015 20.0032 20.0048 20.0063 20.0078 20.0091 20.0102 20.011 20.0117 20.012 20.0121 20.0119 20.0115 20.011 20.0103 20.0097 20.0091 20.0087 20.0081 20.007 20.0047 19.9996 19.9901 19.9739 19.9489 19.9151 19.8762 19.8436 19.8407 19.9079 20.1048 20.509 
20.5358 20.5274 20.4142 20.2782 20.1605 20.0748 20.0208 19.9916 19.9794 19.9772 19.98 19.9846 19.9894 19.9934 19.9966 19.9991 20.001 20.0025 20.0038 20.005 20.006 20.0068 20.0076 20.0082 20.0086 20.0088 20.0088 20.0086 20.0083 20.0077 20.0071 20.0063 20.0057 20.0051 20.0048 20.0047 20.0047 20.0046 20.0034 19.9999 19.992 19.9772 19.9527 19.9172 19.8727 19.8284 19.8055 19.8429 20.0022 20.3681 
20.3971 20.4604 20.3921 20.2806 20.1733 20.09 20.0344 20.0023 19.9872 19.9827 19.9839 19.9875 19.9916 19.9953 19.9983 20.0005 20.0022 20.0034 20.0043 20.005 20.0055 20.006 20.0063 20.0065 20.0065 20.0064 20.0062 20.0058 20.0052 20.0046 20.0039 20.0033 20.0027 20.0023 20.0023 20.0026 20.0033 20.004 20.004 20.0019 19.9958 19.9825 19.959 19.9225 19.8734 19.8183 19.7757 19.7823 19.8998 20.2181 
20.2487 20.382 20.3603 20.2758 20.1814 20.1024 20.0464 20.012 19.9942 19.9874 19.9869 19.9893 19.9927 19.996 19.9987 20.0006 20.0021 20.003 20.0037 20.0041 20.0044 20.0046 20.0047 20.0047 20.0046 20.0044 20.004 20.0036 20.0031 20.0025 20.002 20.0014 20.001 20.0008 20.0011 20.0017 20.0029 20.0043 20.0053 20.0047 20.0002 19.9888 19.9666 19.93 19.8774 19.8128 19.7515 19.7271 19.7999 20.0628 
20.0941 20.2941 20.3195 20.2638 20.1847 20.1117 20.0566 20.0207 20.0005 19.9915 19.9892 19.9905 19.9931 19.9959 19.9983 20.0001 20.0014 20.0022 20.0027 20.0031 20.0032 20.0033 20.0033 20.0032 20.0031 20.0029 20.0026 20.0022 20.0018 20.0013 20.0008 20.0004 20.0002 20.0001 20.0005 20.0014 20.003 20.0049 20.0068 20.0074 20.0046 19.9952 19.9749 19.939 19.8842 19.8117 19.7333 19.6785 19.7048 19.9059 
19.9372 20.1989 20.2706 20.2452 20.183 20.1179 20.0649 20.0282 20.0062 19.9952 19.9913 19.9913 19.9932 19.9955 19.9976 19.9993 20.0005 20.0012 20.0017 20.002 20.0022 20.0022 20.0022 20.0022 20.002 20.0019 20.0016 20.0013 20.001 20.0006 20.0003 20 19.9998 19.9998 20.0003 20.0014 20.0031 20.0055 20.008 20.0098 20.0087 20.0015 19.9835 19.9492 19.8935 19.815 19.7214 19.6377 19.6169 19.7513 
19.7819 20.0988 20.2149 20.2203 20.1766 20.1208 20.0713 20.0348 20.0114 19.9987 19.9933 19.9921 19.9932 19.995 19.9969 19.9984 19.9996 20.0004 20.0009 20.0012 20.0013 20.0014 20.0014 20.0014 20.0013 20.0012 20.0011 20.0009 20.0006 20.0003 20 19.9998 19.9996 19.9997 20.0002 20.0012 20.0031 20.0057 20.0089 20.0117 20.0123 20.0074 19.9922 19.9603 19.9051 19.8225 19.7161 19.6056 19.5384 19.6029 
19.6319 19.9961 20.1538 20.1898 20.1657 20.1206 20.0757 20.0402 20.0162 20.0021 19.9953 19.993 19.9933 19.9947 19.9963 19.9977 19.9988 19.9996 20.0002 20.0005 20.0007 20.0008 20.0009 20.0009 20.0009 20.0008 20.0007 20.0006 20.0004 20.0002 19.9999 19.9997 19.9995 19.9995 20 20.001 20.0028 20.0057 20.0093 20.0131 20.0153 20.0129 20.0008 19.9721 19.9188 19.8342 19.7176 19.583 19.4712 19.4642 
19.491 19.8935 20.0888 20.1546 20.1506 20.1173 20.0782 20.0446 20.0205 20.0054 19.9974 19.9941 19.9936 19.9945 19.9959 19.9972 19.9983 19.9991 19.9996 20 20.0002 20.0004 20.0005 20.0006 20.0006 20.0006 20.0005 20.0004 20.0003 20.0001 19.9998 19.9996 19.9994 19.9993 19.9997 20.0006 20.0024 20.0053 20.0093 20.0139 20.0177 20.0178 20.0091 19.9843 19.9343 19.8497 19.726 19.5707 19.4169 19.3387 
19.3626 19.7935 20.0217 20.1155 20.1318 20.1111 20.0787 20.0479 20.0242 20.0085 19.9995 19.9953 19.9942 19.9946 19.9956 19.9968 19.9978 19.9986 19.9992 19.9996 19.9999 20.0001 20.0003 20.0004 20.0004 20.0004 20.0004 20.0003 20.0002 20 19.9997 19.9995 19.9992 19.9991 19.9993 20.0001 20.0018 20.0046 20.0089 20.0143 20.0196 20.0221 20.017 19.9968 19.9512 19.8689 19.741 19.5689 19.377 19.2295 
19.2499 19.6986 19.954 20.0736 20.1097 20.1021 20.0772 20.05 20.0273 20.0114 20.0017 19.9967 19.9949 19.9948 19.9955 19.9966 19.9975 19.9983 19.999 19.9994 19.9997 19.9999 20.0001 20.0002 20.0003 20.0003 20.0003 20.0002 20.0001 19.9999 19.9996 19.9993 19.999 19.9988 19.9989 19.9995 20.001 20.0038 20.0082 20.0142 20.0208 20.0258 20.0244 20.0093 19.9693 19.8912 19.7623 19.5776 19.3524 19.1393 
19.1557 19.6111 19.8874 20.0299 20.0849 20.0906 20.0739 20.0508 20.0298 20.0141 20.0039 19.9982 19.9957 19.9952 19.9956 19.9965 19.9974 19.9981 19.9988 19.9992 19.9996 19.9998 20 20.0001 20.0002 20.0002 20.0002 20.0001 20 19.9998 19.9995 19.9992 19.9988 19.9985 19.9984 19.9989 20.0002 20.0028 20.0073 20.0137 20.0215 20.0287 20.0312 20.0215 19.9882 19.9162 19.7895 19.5968 19.3438 19.0702 
19.0822 19.5332 19.8236 19.9854 20.0579 20.0769 20.0687 20.0504 20.0316 20.0164 20.006 19.9998 19.9967 19.9957 19.9959 19.9965 19.9973 19.998 19.9986 19.9991 19.9995 19.9997 19.9999 20 20.0001 20.0001 20.0001 20.0001 19.9999 19.9997 19.9994 19.9991 19.9987 19.9982 19.998 19.9982 19.9993 20.0017 20.0061 20.0128 20.0216 20.031 20.0372 20.0331 20.0072 19.9432 19.8218 19.6258 19.3512 19.0241 
19.0314 19.4668 19.7642 19.9412 20.0296 20.0613 20.0618 20.0488 20.0325 20.0183 20.0079 20.0013 19.9978 19.9964 19.9962 19.9966 19.9973 19.998 19.9986 19.999 19.9994 19.9996 19.9998 20 20 20.0001 20.0001 20 19.9999 19.9997 19.9994 19.999 19.9985 19.998 19.9976 19.9976 19.9984 20.0006 20.0048 20.0116 20.0211 20.0324 20.0422 20.044 20.0261 19.9716 19.8585 19.6641 19.3747 19.002 
19.0044 19.4135 19.7105 19.8986 20.0005 20.0441 20.0534 20.0459 20.0327 20.0198 20.0096 20.0028 19.9989 19.9971 19.9966 19.9969 19.9974 19.998 19.9986 19.999 19.9994 19.9996 19.9998 19.9999 20 20 20 20 19.9998 19.9996 19.9993 19.9989 19.9984 19.9978 19.9973 19.9971 19.9976 19.9994 20.0033 20.0101 20.0202 20.0331 20.0463 20.0537 20.0444 20.0007 19.8987 19.7106 19.4136 19.0044 
19.002 19.3746 19.664 19.8584 19.9714 20.0259 20.0436 20.0419 20.032 20.0207 20.0111 20.0043 20.0001 19.9979 19.9971 19.9972 19.9976 19.9981 19.9986 19.999 19.9994 19.9996 19.9998 19.9999 20 20 20 19.9999 19.9998 19.9996 19.9993 19.9989 19.9984 19.9977 19.9971 19.9967 19.9968 19.9983 20.0018 20.0083 20.0187 20.0329 20.0491 20.0621 20.0615 20.0298 19.9414 19.7643 19.4669 19.0314 
19.0241 19.3512 19.6257 19.8216 19.943 20.007 20.0328 20.0368 20.0305 20.0211 20.0123 20.0056 20.0012 19.9988 19.9977 19.9975 19.9977 19.9982 19.9986 19.999 19.9994 19.9996 19.9998 19.9999 20 20 20 20 19.9998 19.9997 19.9994 19.999 19.9984 19.9977 19.9969 19.9963 19.9962 19.9972 20.0002 20.0064 20.0168 20.032 20.0508 20.069 20.0772 20.0582 19.9855 19.8237 19.5333 19.0822 
19.0702 19.3437 19.5966 19.7893 19.916 19.9879 20.0211 20.0308 20.0283 20.021 20.0132 20.0067 20.0023 19.9996 19.9983 19.9979 19.998 19.9983 19.9987 19.9991 19.9994 19.9996 19.9998 20 20 20.0001 20.0001 20 19.9999 19.9997 19.9995 19.9991 19.9985 19.9978 19.9969 19.9961 19.9957 19.9962 19.9987 20.0043 20.0145 20.0302 20.0512 20.0742 20.0909 20.0851 20.03 19.8875 19.6112 19.1557 
19.1393 19.3524 19.5775 19.7621 19.891 19.969 20.0089 20.024 20.0253 20.0203 20.0136 20.0076 20.0032 20.0004 19.9988 19.9982 19.9982 19.9984 19.9988 19.9991 19.9994 19.9997 19.9999 20 20.0001 20.0001 20.0001 20.0001 20 19.9999 19.9996 19.9993 19.9987 19.998 19.997 19.996 19.9953 19.9954 19.9972 20.0022 20.0119 20.0278 20.0504 20.0776 20.1024 20.1099 20.0738 19.9541 19.6987 19.2499 
19.2295 19.3769 19.5687 19.7408 19.8686 19.9509 19.9964 20.0165 20.0215 20.019 20.0136 20.0082 20.0039 20.001 19.9993 19.9986 19.9984 19.9985 19.9988 19.9991 19.9994 19.9997 19.9999 20.0001 20.0002 20.0002 20.0003 20.0003 20.0002 20.0001 19.9999 19.9996 19.999 19.9983 19.9973 19.9961 19.9951 19.9947 19.9959 20 20.009 20.0247 20.0483 20.079 20.1114 20.132 20.1157 20.0218 19.7936 19.3626 
19.3387 19.4168 19.5705 19.7257 19.8494 19.9338 19.9838 20.0085 20.0171 20.017 20.0132 20.0085 20.0044 20.0015 19.9997 19.9988 19.9985 19.9986 19.9988 19.9991 19.9994 19.9997 20 20.0002 20.0003 20.0004 20.0005 20.0006 20.0006 20.0005 20.0003 20 19.9995 19.9988 19.9977 19.9965 19.9951 19.9942 19.9947 19.9979 20.0059 20.0209 20.0451 20.0785 20.1176 20.1509 20.1547 20.0889 19.8936 19.491 
19.4642 19.4711 19.5828 19.7172 19.8337 19.9182 19.9713 20 20.012 20.0144 20.0121 20.0083 20.0046 20.0018 20 19.999 19.9986 19.9986 19.9988 19.9991 19.9995 19.9998 20.0001 20.0004 20.0006 20.0008 20.0009 20.001 20.0011 20.0011 20.0009 20.0007 20.0002 19.9995 19.9984 19.997 19.9954 19.994 19.9937 19.9958 20.0026 20.0166 20.0406 20.076 20.1208 20.1659 20.1899 20.1538 19.9961 19.6319 
19.6029 19.5382 19.6052 19.7155 19.8218 19.9043 19.9593 19.9911 20.0063 20.0111 20.0105 20.0077 20.0045 20.0019 20.0001 19.999 19.9986 19.9986 19.9989 19.9993 19.9997 20.0001 20.0005 20.0009 20.0012 20.0014 20.0016 20.0018 20.0018 20.0019 20.0018 20.0015 20.0011 20.0003 19.9992 19.9976 19.9957 19.9938 19.9927 19.9938 19.9991 20.0118 20.035 20.0715 20.1209 20.1767 20.2203 20.2149 20.0988 19.7819 
19.7513 19.6167 19.6371 19.7206 19.814 19.8923 19.9479 19.9821 20 20.0072 20.0083 20.0066 20.004 20.0017 20.0001 19.9991 19.9988 19.9989 19.9992 19.9997 20.0002 20.0007 20.0012 20.0017 20.0021 20.0024 20.0026 20.0028 20.0029 20.0029 20.0028 20.0026 20.0021 20.0013 20.0001 19.9983 19.9961 19.9937 19.9918 19.9916 19.9954 20.0063 20.0282 20.0648 20.1177 20.1829 20.245 20.2705 20.1989 19.9372 
19.9059 19.7044 19.6778 19.7322 19.8104 19.8826 19.9373 19.9731 19.9934 20.0028 20.0056 20.0051 20.0034 20.0016 20.0002 19.9995 19.9993 19.9995 20 20.0006 20.0013 20.002 20.0026 20.0031 20.0035 20.0039 20.0041 20.0043 20.0043 20.0043 20.0041 20.0037 20.0031 20.0021 20.0008 19.9988 19.9963 19.9933 19.9905 19.9891 19.9912 20.0001 20.0202 20.0561 20.1112 20.1842 20.2635 20.3192 20.294 20.0941 
20.0628 19.7994 19.7262 19.7502 19.8111 19.8755 19.9279 19.9645 19.9867 19.9981 20.0028 20.0037 20.0029 20.0018 20.0009 20.0005 20.0005 20.001 20.0016 20.0024 20.0032 20.004 20.0047 20.0052 20.0056 20.0059 20.006 20.006 20.0059 20.0056 20.0052 20.0045 20.0037 20.0025 20.0009 19.9986 19.9957 19.9922 19.9886 19.986 19.9863 19.993 20.0108 20.0452 20.1014 20.1805 20.2751 20.3599 20.3818 20.2487 
20.2181 19.8992 19.7813 19.7742 19.8165 19.8713 19.9203 19.9568 19.9805 19.9939 20.0004 20.0028 20.0032 20.0029 20.0026 20.0027 20.0031 20.0038 20.0046 20.0055 20.0064 20.0071 20.0077 20.0081 20.0083 20.0083 20.0081 20.0077 20.0072 20.0065 20.0056 20.0046 20.0033 20.0018 19.9998 19.9972 19.994 19.99 19.9856 19.9818 19.9805 19.985 20.0002 20.0325 20.0884 20.172 20.2796 20.3915 20.4601 20.3971 
20.3681 20.0018 19.8421 19.8042 19.8269 19.8711 19.9156 19.9512 19.9759 19.9911 19.9995 20.0035 20.0052 20.0059 20.0063 20.0069 20.0076 20.0084 20.0093 20.0101 20.0108 20.0113 20.0115 20.0115 20.0111 20.0105 20.0097 20.0086 20.0074 20.006 20.0044 20.0028 20.001 19.999 19.9966 19.9938 19.9902 19.9859 19.981 19.9763 19.9736 19.976 19.9886 20.0182 20.0728 20.159 20.2773 20.4136 20.5271 20.5358 
20.509 20.1047 19.9078 19.8406 19.8434 19.8761 19.9152 19.9493 19.9746 19.9915 20.0016 20.0073 20.0102 20.0119 20.0129 20.0138 20.0146 20.0153 20.0159 20.0162 20.0163 20.016 20.0154 20.0144 20.0131 20.0114 20.0095 20.0074 20.0051 20.0027 20.0003 19.9979 19.9955 19.9931 19.9904 19.9875 19.9839 19.9796 19.9747 19.9697 19.966 19.9668 19.9769 20.0036 20.0559 20.1429 20.2689 20.4262 20.5816 20.6613 
20.6374 20.2063 19.978 19.8839 19.8676 19.8885 19.9215 19.9535 19.979 19.997 20.0086 20.0157 20.0197 20.022 20.0232 20.0239 20.0243 20.0242 20.0238 20.0229 20.0216 20.0199 20.0177 20.015 20.012 20.0088 20.0053 20.0017 19.9981 19.9947 19.9913 19.9883 19.9855 19.9829 19.9804 19.9778 19.9749 19.9714 19.9672 19.9626 19.9589 19.9587 19.9669 19.9907 20.0399 20.1257 20.2564 20.4302 20.6228 20.7705 
20.7501 20.305 20.0528 19.9358 19.9019 19.9112 19.9378 19.967 19.9918 20.0103 20.0227 20.0304 20.0346 20.0367 20.0372 20.0368 20.0355 20.0336 20.0311 20.0279 20.0242 20.0199 20.0152 20.0101 20.0048 19.9994 19.994 19.9888 19.9839 19.9795 19.9756 19.9724 19.9698 19.9679 19.9665 19.9653 19.9642 19.9626 19.9603 19.9575 19.955 19.955 19.962 19.983 20.0286 20.1111 20.2426 20.4275 20.6508 20.8607 
20.8443 20.3996 20.133 19.9985 19.9494 19.9479 19.9676 19.993 20.016 20.0335 20.0452 20.0519 20.0548 20.055 20.0531 20.0498 20.0453 20.0398 20.0335 20.0265 20.019 20.0111 20.0029 19.9947 19.9867 19.9789 19.9718 19.9653 19.9598 19.9553 19.9519 19.9498 19.9489 19.9492 19.9505 19.9526 19.9549 19.957 19.9584 19.959 19.9592 19.9608 19.9675 19.9862 20.0271 20.104 20.2319 20.4211 20.6664 20.9298 
20.9178 20.4897 20.2198 20.0744 20.0135 20.0019 20.0142 20.034 20.0528 20.0669 20.0752 20.0782 20.0771 20.0726 20.0657 20.0569 20.0467 20.0355 20.0236 20.0112 19.9986 19.9861 19.974 19.9625 19.952 19.9427 19.9348 19.9286 19.9241 19.9216 19.9211 19.9225 19.9259 19.9311 19.9377 19.9454 19.9537 19.9617 19.9689 19.9748 19.9793 19.9836 19.991 20.0073 20.0425 20.1109 20.2296 20.4148 20.6712 20.9759 
20.9686 20.5746 20.3139 20.1653 20.0962 20.0751 20.0781 20.0894 20.1003 20.1067 20.1073 20.1025 20.0931 20.0802 20.0646 20.0472 20.0286 20.0093 19.99 19.971 19.9527 19.9357 19.9203 19.907 19.8959 19.8874 19.8816 19.8789 19.8791 19.8824 19.8886 19.8976 19.9092 19.923 19.9385 19.9551 19.972 19.9884 20.0033 20.0158 20.0257 20.0334 20.0412 20.0544 20.0818 20.1376 20.2406 20.4119 20.6664 20.998 
20.9956 20.6531 20.4144 20.2702 20.1957 20.1641 20.1543 20.1519 20.1489 20.1414 20.1282 20.1096 20.0867 20.0605 20.0323 20.003 19.9736 19.9448 19.9176 19.8924 19.8699 19.8507 19.8352 19.8238 19.8168 19.8142 19.8163 19.8229 19.8339 19.849 19.8679 19.8901 19.915 19.942 19.9703 19.999 20.027 20.0533 20.0765 20.0957 20.1101 20.1197 20.1261 20.1332 20.1491 20.1868 20.2661 20.4122 20.651 20.9956 
20.998 20.7212 20.5152 20.3809 20.3012 20.2554 20.2264 20.2025 20.1771 20.1473 20.1125 20.0733 20.031 19.9871 19.943 19.9002 19.8597 19.8227 19.7902 19.7629 19.7414 19.7264 19.7181 19.7168 19.7224 19.7349 19.754 19.7791 19.8097 19.845 19.8842 19.9263 19.9702 20.0148 20.059 20.1014 20.1408 20.1758 20.205 20.2273 20.2417 20.248 20.247 20.2419 20.2393 20.2511 20.2967 20.4053 20.6159 20.9686 
20.9759 20.7687 20.5997 20.4755 20.3863 20.3182 20.2599 20.2036 20.1453 20.0837 20.0193 19.9534 19.8878 19.8243 19.7649 19.7111 19.6643 19.6258 19.5966 19.5774 19.5685 19.5704 19.5828 19.6055 19.638 19.6793 19.7286 19.7845 19.8458 19.9109 19.9783 20.0462 20.1129 20.1769 20.2365 20.29 20.336 20.3731 20.4 20.4156 20.4191 20.4105 20.3905 20.3616 20.3292 20.3033 20.3023 20.3586 20.5295 20.9178 
20.9298 20.7699 20.6309 20.5084 20.3985 20.2953 20.1943 20.0933 19.9917 19.8905 19.7918 19.6976 19.6105 19.5326 19.4661 19.4127 19.3737 19.3501 19.3426 19.3512 19.3759 19.4159 19.4703 19.5378 19.6166 19.7049 19.8005 19.901 20.0039 20.1068 20.207 20.3021 20.3899 20.468 20.5346 20.5879 20.6265 20.6493 20.6557 20.6451 20.6176 20.5739 20.5152 20.444 20.3646 20.2845 20.2182 20.1966 20.2966 20.8443 
20.8607 20.6613 20.5358 20.3971 20.2487 20.0941 19.9372 19.7819 19.6319 19.491 19.3626 19.2499 19.1557 19.0822 19.0314 19.0044 19.002 19.0241 19.0702 19.1393 19.2295 19.3387 19.4642 19.6029 19.7513 19.9059 20.0628 20.2181 20.3681 20.509 20.6374 20.7501 20.8443 20.9178 20.9686 20.9956 20.998 20.9759 20.9298 20.8607 20.7705 20.6613 20.5358 20.3971 20.2487 20.0941 19.9372 19.7819 19.6319 20.7501 
