# vtk DataFile Version 3.0
Temperature distribution on a 2D grid
ASCII

DATASET STRUCTURED_POINTS
DIMENSIONS 50 50 1
ORIGIN 0.0 0.0 0.0
SPACING 0.01 0.01 1.0

POINT_DATA 2500
SCALARS temperature double
LOOKUP_TABLE default
20.9877 19 19.0123 19.0489 19.109 19.191 19.2929 19.4122 19.546 19.691 19.8436 20 20.1564 20.309 20.454 20.5878 20.7071 20.809 20.891 20.9511 20.9877 21 20.9877 20.9511 20.891 20.809 20.7071 20.5878 20.454 20.309 20.1564 20 19.8436 19.691 19.546 19.4122 19.2929 19.191 19.109 19.0489 19.0123 19 19.0123 19.0489 19.109 19.191 19.2929 19.4122 19.546 19.8436 
20.9511 20.0151 19.7253 19.6296 19.625 19.6691 19.7417 19.8311 19.9299 20.033 20.1361 20.2361 20.33 20.4156 20.4907 20.5534 20.6024 20.6364 20.6548 20.657 20.643 20.6132 20.5683 20.5094 20.4379 20.3557 20.2648 20.1673 20.0657 19.9625 19.8603 19.7615 19.6685 19.5838 19.5092 19.4466 19.3976 19.3632 19.3445 19.342 19.356 19.3869 19.4349 19.5002 19.5827 19.6808 19.7901 19.8989 19.9817 20 
20.891 20.4146 20.141 20.0035 19.9533 19.9569 19.9926 20.0459 20.1075 20.1709 20.2319 20.2875 20.3356 20.375 20.4047 20.424 20.4326 20.4303 20.4173 20.3941 20.3611 20.3192 20.2695 20.2132 20.1516 20.0863 20.0189 19.9511 19.8845 19.8207 19.7614 19.7079 19.6617 19.6237 19.595 19.5761 19.5674 19.5691 19.5812 19.6037 19.6366 19.6804 19.7359 19.8044 19.8874 19.9843 20.0899 20.1872 20.2361 20.1564 
20.809 20.5614 20.35 20.2088 20.1321 20.1036 20.1068 20.1285 20.1592 20.1919 20.2225 20.2481 20.2673 20.2792 20.2835 20.2803 20.2697 20.2523 20.2286 20.1991 20.1648 20.1263 20.0848 20.0413 19.9967 19.9523 19.909 19.868 19.8303 19.7967 19.7683 19.7455 19.729 19.7192 19.7161 19.7199 19.7302 19.7468 19.7693 19.7974 19.8314 19.872 19.9211 19.9815 20.0563 20.1472 20.2501 20.3475 20.3959 20.309 
20.7071 20.5921 20.4362 20.3034 20.2126 20.1614 20.1401 20.1381 20.1463 20.1583 20.1696 20.1777 20.181 20.1791 20.172 20.1601 20.1437 20.1234 20.1 20.074 20.0461 20.0172 19.9878 19.9588 19.9308 19.9045 19.8806 19.8597 19.8423 19.8288 19.8196 19.8148 19.8146 19.8189 19.8275 19.8401 19.8563 19.8754 19.8971 19.9212 19.948 19.9789 20.0166 20.0654 20.1303 20.2157 20.3202 20.4291 20.5014 20.454 
20.5878 20.5646 20.4545 20.3345 20.2377 20.1721 20.134 20.1157 20.1093 20.1085 20.1091 20.1084 20.1048 20.098 20.0879 20.0749 20.0596 20.0424 20.024 20.0049 19.9857 19.9668 19.9488 19.932 19.917 19.9041 19.8935 19.8856 19.8806 19.8785 19.8795 19.8835 19.8903 19.8998 19.9117 19.9254 19.9404 19.9563 19.9724 19.9888 20.0061 20.0259 20.0519 20.0894 20.1454 20.2269 20.3363 20.4635 20.5729 20.5878 
20.454 20.5055 20.4369 20.3329 20.2363 20.163 20.1145 20.0858 20.0705 20.0627 20.0582 20.054 20.0488 20.0417 20.0329 20.0225 20.011 19.9989 19.9866 19.9744 19.9629 19.9523 19.943 19.935 19.9287 19.9242 19.9215 19.9209 19.9222 19.9255 19.9307 19.9377 19.9462 19.956 19.9667 19.9779 19.9891 19.9997 20.0093 20.0179 20.0263 20.0363 20.0521 20.0799 20.1284 20.2071 20.3224 20.4697 20.6208 20.7071 
20.309 20.428 20.4004 20.3161 20.225 20.1494 20.0953 20.0605 20.0401 20.0288 20.0223 20.0176 20.0131 20.0079 20.0018 19.9951 19.9879 19.9806 19.9735 19.967 19.9612 19.9564 19.9527 19.9502 19.949 19.949 19.9504 19.953 19.9568 19.9617 19.9677 19.9745 19.9819 19.9898 19.9978 20.0055 20.0124 20.0181 20.022 20.0242 20.0255 20.0278 20.0354 20.0551 20.097 20.1728 20.2928 20.4586 20.6502 20.809 
20.1564 20.339 20.3536 20.2926 20.2115 20.1379 20.0818 20.044 20.0209 20.0078 20.0007 19.9966 19.9936 19.9907 19.9876 19.9841 19.9804 19.9769 19.9737 19.971 19.9689 19.9676 19.9672 19.9676 19.9688 19.9708 19.9736 19.977 19.9811 19.9857 19.9908 19.9961 20.0016 20.007 20.0122 20.0167 20.0201 20.0219 20.0217 20.0194 20.0155 20.0121 20.0133 20.0262 20.0617 20.1335 20.2557 20.436 20.6634 20.891 
20 20.2426 20.3002 20.2658 20.1984 20.1301 20.0748 20.0359 20.0114 19.9974 19.9903 19.9869 19.9853 19.9843 19.9834 19.9824 19.9813 19.9803 19.9795 19.9791 19.9791 19.9796 19.9807 19.9822 19.9843 19.9867 19.9895 19.9926 19.996 19.9995 20.0031 20.0067 20.0102 20.0135 20.0164 20.0185 20.0195 20.0188 20.016 20.0108 20.0036 19.996 19.9921 19.9989 20.0277 20.094 20.2151 20.4047 20.6614 20.9511 
19.8436 20.1415 20.2421 20.2363 20.1855 20.1252 20.0728 20.0342 20.009 19.9945 19.9872 19.9843 19.9836 19.9839 19.9845 19.985 19.9855 19.9859 19.9865 19.9872 19.9882 19.9894 19.9909 19.9927 19.9947 19.9968 19.999 20.0013 20.0036 20.0059 20.0082 20.0103 20.0123 20.014 20.0153 20.016 20.0155 20.0135 20.0093 20.0026 19.9933 19.9829 19.9747 19.9757 19.9974 20.0562 20.1726 20.366 20.6444 20.9877 
19.691 20.0381 20.1801 20.2042 20.1719 20.1217 20.0737 20.0363 20.011 19.996 19.9884 19.9855 19.9852 19.9862 19.9875 19.9889 19.9902 19.9914 19.9925 19.9937 19.9949 19.9962 19.9977 19.9991 20.0007 20.0022 20.0037 20.0052 20.0066 20.0079 20.009 20.0101 20.0111 20.0118 20.0122 20.0121 20.0111 20.0086 20.0039 19.9965 19.9861 19.9736 19.9618 19.9573 19.9712 20.0208 20.129 20.3205 20.6127 21 
19.546 19.9344 20.1152 20.169 20.1565 20.1178 20.0755 20.0402 20.0152 19.9998 19.9917 19.9884 19.9881 19.9892 19.9908 19.9925 19.9941 19.9955 19.9968 19.998 19.9992 20.0003 20.0014 20.0025 20.0035 20.0045 20.0054 20.0062 20.0068 20.0074 20.0079 20.0083 20.0086 20.0089 20.0089 20.0086 20.0075 20.005 20.0004 19.993 19.9821 19.968 19.9532 19.9432 19.9489 19.9878 20.0846 20.2688 20.5668 20.9877 
19.4122 19.8329 20.0483 20.1308 20.1386 20.1124 20.0767 20.0443 20.02 20.0043 19.9956 19.9918 19.991 19.9919 19.9934 19.9951 19.9967 19.9981 19.9994 20.0004 20.0014 20.0023 20.003 20.0037 20.0044 20.0049 20.0053 20.0056 20.0058 20.006 20.006 20.0061 20.0062 20.0062 20.0062 20.0059 20.005 20.0029 19.9988 19.9917 19.9807 19.9656 19.9481 19.9329 19.93 19.9569 20.0396 20.2116 20.5076 20.9511 
19.2929 19.7356 19.9806 20.0899 20.1179 20.1048 20.0766 20.0477 20.0245 20.0087 19.9993 19.9948 19.9935 19.994 19.9953 19.9968 19.9983 19.9995 20.0006 20.0015 20.0023 20.0029 20.0034 20.0038 20.0041 20.0043 20.0045 20.0045 20.0045 20.0044 20.0042 20.0041 20.0041 20.0041 20.0042 20.0042 20.0037 20.0021 19.9986 19.9921 19.9813 19.9656 19.9457 19.9256 19.9142 19.9283 19.9946 20.1498 20.4361 20.891 
19.191 19.6449 19.9135 20.047 20.0945 20.0948 20.0747 20.0499 20.0282 20.0125 20.0026 19.9975 19.9955 19.9955 19.9964 19.9977 19.9989 20.0001 20.001 20.0017 20.0023 20.0027 20.003 20.0033 20.0034 20.0035 20.0034 20.0033 20.0031 20.003 20.0028 20.0026 20.0026 20.0027 20.003 20.0032 20.0031 20.0022 19.9994 19.9936 19.9833 19.9672 19.9455 19.9209 19.9012 19.9021 19.9502 20.0846 20.3541 20.809 
19.109 19.563 19.8485 20.0029 20.0686 20.0823 20.0707 20.0505 20.0309 20.0156 20.0054 19.9996 19.9971 19.9965 19.997 19.998 19.9991 20 20.0008 20.0014 20.0019 20.0022 20.0024 20.0026 20.0026 20.0026 20.0025 20.0023 20.0021 20.0019 20.0017 20.0016 20.0016 20.0018 20.0022 20.0027 20.0031 20.0027 20.0007 19.9957 19.9861 19.9701 19.947 19.9185 19.8908 19.8784 19.9072 20.0175 20.2634 20.7071 
19.0489 19.4918 19.7872 19.9587 20.0409 20.0676 20.0647 20.0496 20.0324 20.0179 20.0076 20.0014 19.9982 19.9972 19.9973 19.998 19.9989 19.9997 20.0004 20.0009 20.0013 20.0016 20.0018 20.0019 20.0019 20.0018 20.0017 20.0015 20.0013 20.0011 20.001 20.0009 20.0009 20.0012 20.0018 20.0025 20.0032 20.0034 20.0022 19.9981 19.9894 19.9738 19.9499 19.9181 19.8832 19.8578 19.8666 19.95 20.1663 20.5878 
19.0123 19.4331 19.7311 19.9153 20.0121 20.0511 20.0569 20.0473 20.0329 20.0196 20.0094 20.0029 19.9992 19.9977 19.9975 19.9979 19.9986 19.9993 19.9999 20.0004 20.0008 20.001 20.0012 20.0013 20.0013 20.0012 20.0011 20.001 20.0008 20.0006 20.0005 20.0004 20.0005 20.0008 20.0015 20.0024 20.0034 20.0041 20.0037 20.0006 19.9929 19.9781 19.954 19.9197 19.8785 19.8407 19.8291 19.8837 20.065 20.454 
19 19.3883 19.6816 19.874 19.9829 20.0332 20.0476 20.0436 20.0325 20.0206 20.0108 20.0041 20.0001 19.9982 19.9976 19.9978 19.9983 19.9989 19.9995 20 20.0003 20.0006 20.0007 20.0008 20.0008 20.0008 20.0007 20.0006 20.0004 20.0003 20.0001 20.0001 20.0002 20.0005 20.0012 20.0023 20.0036 20.0048 20.005 20.003 19.9965 19.9829 19.9591 19.9232 19.8766 19.8274 19.7958 19.8201 19.9621 20.309 
19.0123 19.3586 19.6398 19.8357 19.9541 20.0144 20.0371 20.0388 20.0311 20.021 20.0119 20.0052 20.0009 19.9987 19.9978 19.9977 19.9981 19.9986 19.9991 19.9996 19.9999 20.0002 20.0004 20.0005 20.0005 20.0005 20.0004 20.0003 20.0002 20 19.9999 19.9998 19.9999 20.0002 20.0009 20.0021 20.0036 20.0052 20.0062 20.0052 20.0001 19.9879 19.965 19.9284 19.8776 19.8182 19.7674 19.761 19.8601 20.1564 
19.0489 19.3447 19.6069 19.8014 19.9263 19.9951 20.0255 20.0329 20.0289 20.0208 20.0126 20.0061 20.0017 19.9992 19.998 19.9978 19.998 19.9984 19.9989 19.9993 19.9997 19.9999 20.0001 20.0002 20.0003 20.0003 20.0002 20.0001 20 19.9999 19.9997 19.9996 19.9997 20 20.0006 20.0018 20.0035 20.0054 20.0071 20.0072 20.0036 19.9932 19.9718 19.9353 19.8815 19.8134 19.7447 19.7077 19.7616 20 
19.109 19.3468 19.5837 19.772 19.9003 19.976 20.0133 20.0262 20.026 20.0201 20.013 20.0068 20.0024 19.9997 19.9984 19.9979 19.998 19.9983 19.9987 19.9991 19.9995 19.9997 19.9999 20.0001 20.0001 20.0001 20.0001 20 19.9999 19.9997 19.9996 19.9994 19.9994 19.9997 20.0003 20.0014 20.0032 20.0055 20.0078 20.009 20.007 19.9985 19.9791 19.9438 19.8884 19.8132 19.7283 19.6615 19.6689 19.8436 
19.191 19.3651 19.5707 19.7482 19.8767 19.9574 20.0007 20.0189 20.0224 20.0189 20.013 20.0074 20.0031 20.0003 19.9987 19.9981 19.998 19.9983 19.9986 19.999 19.9993 19.9996 19.9998 19.9999 20 20 20 19.9999 19.9998 19.9996 19.9994 19.9993 19.9992 19.9994 19.9999 20.001 20.0029 20.0054 20.0083 20.0105 20.0101 20.0039 19.987 19.9535 19.8979 19.8175 19.7185 19.6237 19.5843 19.691 
19.2929 19.399 19.5683 19.7305 19.8562 19.9399 19.9881 20.011 20.0182 20.0172 20.0127 20.0078 20.0037 20.0009 19.9992 19.9984 19.9982 19.9983 19.9986 19.9989 19.9993 19.9995 19.9997 19.9999 20 20 20 19.9999 19.9997 19.9995 19.9993 19.9991 19.999 19.9991 19.9995 20.0006 20.0024 20.0051 20.0085 20.0117 20.013 20.0091 19.9951 19.9644 19.9099 19.8263 19.7156 19.5952 19.51 19.546 
19.4122 19.4476 19.5764 19.7195 19.8391 19.9238 19.9758 20.0029 20.0136 20.015 20.0121 20.008 20.0042 20.0014 19.9996 19.9987 19.9984 19.9984 19.9986 19.9989 19.9992 19.9995 19.9997 19.9998 19.9999 19.9999 19.9999 19.9998 19.9997 19.9995 19.9993 19.999 19.9988 19.9988 19.9992 20.0001 20.0019 20.0047 20.0085 20.0126 20.0155 20.014 20.0033 19.9761 19.9241 19.8394 19.7197 19.5766 19.4477 19.4122 
19.546 19.5099 19.595 19.7154 19.8261 19.9096 19.9641 19.9947 20.0086 20.0125 20.0112 20.008 20.0046 20.0019 20.0001 19.999 19.9986 19.9985 19.9987 19.999 19.9992 19.9995 19.9997 19.9998 19.9999 20 19.9999 19.9999 19.9997 19.9995 19.9992 19.999 19.9987 19.9986 19.9988 19.9996 20.0013 20.0042 20.0083 20.0132 20.0176 20.0186 20.0114 19.9885 19.9402 19.8564 19.7307 19.5684 19.399 19.2929 
19.691 19.5842 19.6236 19.7183 19.8173 19.8976 19.9532 19.9865 20.0034 20.0096 20.01 20.0077 20.0048 20.0023 20.0005 19.9994 19.9988 19.9987 19.9988 19.999 19.9993 19.9995 19.9997 19.9998 19.9999 20 20 19.9999 19.9998 19.9996 19.9993 19.999 19.9987 19.9985 19.9985 19.9992 20.0008 20.0036 20.0079 20.0135 20.0193 20.0228 20.0192 20.0011 19.9577 19.8769 19.7483 19.5708 19.3651 19.191 
19.8436 19.6688 19.6614 19.7281 19.8129 19.888 19.9434 19.9787 19.998 20.0065 20.0084 20.0072 20.0049 20.0026 20.0008 19.9997 19.9991 19.9989 19.9989 19.9991 19.9993 19.9996 19.9998 19.9999 20 20.0001 20.0001 20 19.9999 19.9997 19.9994 19.9991 19.9987 19.9984 19.9983 19.9988 20.0002 20.0029 20.0073 20.0134 20.0205 20.0264 20.0266 20.0136 19.9763 19.9005 19.7722 19.5838 19.3469 19.109 
20 19.7615 19.7075 19.7445 19.8131 19.8811 19.9349 19.9713 19.9926 20.003 20.0066 20.0065 20.0048 20.0028 20.0011 20 19.9993 19.9991 19.9991 19.9992 19.9994 19.9997 19.9999 20 20.0002 20.0002 20.0003 20.0002 20.0001 19.9999 19.9996 19.9992 19.9988 19.9984 19.9982 19.9985 19.9997 20.0022 20.0065 20.013 20.0212 20.0293 20.0333 20.0258 19.9954 19.9265 19.8016 19.607 19.3447 19.0489 
20.1564 19.86 19.7608 19.7671 19.8178 19.8771 19.9279 19.9644 19.9873 19.9994 20.0045 20.0054 20.0044 20.0028 20.0013 20.0002 19.9996 19.9993 19.9992 19.9994 19.9996 19.9998 20 20.0002 20.0004 20.0005 20.0005 20.0005 20.0004 20.0002 19.9999 19.9995 19.9991 19.9986 19.9982 19.9983 19.9992 20.0014 20.0056 20.0123 20.0213 20.0315 20.0391 20.0373 20.0146 19.9542 19.8358 19.6399 19.3587 19.0123 
20.309 19.962 19.8199 19.7954 19.8269 19.876 19.9225 19.9583 19.9821 19.9957 20.0022 20.0042 20.0039 20.0027 20.0015 20.0005 19.9998 19.9995 19.9995 19.9996 19.9998 20.0001 20.0003 20.0006 20.0007 20.0009 20.0009 20.0009 20.0008 20.0006 20.0004 19.9999 19.9994 19.9988 19.9983 19.9981 19.9987 20.0006 20.0045 20.0112 20.0209 20.0328 20.0439 20.0478 20.0333 19.983 19.8741 19.6816 19.3884 19 
20.454 20.0649 19.8833 19.8287 19.8401 19.8778 19.9189 19.9531 19.9772 19.992 19.9997 20.0027 20.0032 20.0026 20.0016 20.0007 20.0002 19.9999 19.9999 20 20.0003 20.0006 20.0008 20.0011 20.0013 20.0014 20.0015 20.0015 20.0014 20.0012 20.0009 20.0004 19.9998 19.9991 19.9984 19.9979 19.9981 19.9996 20.0032 20.0097 20.0198 20.0331 20.0474 20.057 20.0511 20.0122 19.9153 19.7311 19.4331 19.0123 
20.5878 20.1661 19.9496 19.866 19.8572 19.8824 19.9172 19.9489 19.9728 19.9883 19.9971 20.0012 20.0025 20.0024 20.0017 20.0011 20.0007 20.0005 20.0005 20.0007 20.001 20.0013 20.0016 20.0018 20.002 20.0021 20.0022 20.0021 20.002 20.0018 20.0014 20.0008 20.0001 19.9992 19.9983 19.9976 19.9974 19.9984 20.0015 20.0077 20.0179 20.0324 20.0495 20.0646 20.0675 20.0409 19.9586 19.7872 19.4918 19.0489 
20.7071 20.2632 20.0171 19.9067 19.8777 19.89 19.9175 19.946 19.9691 19.9851 19.9948 19.9998 20.0019 20.0024 20.0022 20.0018 20.0015 20.0014 20.0015 20.0017 20.002 20.0023 20.0026 20.0028 20.0029 20.003 20.003 20.0028 20.0026 20.0023 20.0017 20.0011 20.0002 19.9992 19.998 19.997 19.9964 19.9969 19.9994 20.0051 20.0152 20.0305 20.0502 20.0704 20.082 20.0684 20.0028 19.8484 19.563 19.109 
20.809 20.3539 20.0843 19.9497 19.9014 19.9004 19.9201 19.9447 19.9664 19.9825 19.9929 19.9989 20.0017 20.0029 20.0031 20.003 20.0029 20.0029 20.003 20.0032 20.0035 20.0037 20.0039 20.004 20.004 20.0039 20.0037 20.0034 20.0029 20.0024 20.0017 20.0009 19.9998 19.9986 19.9972 19.9958 19.9948 19.9948 19.9967 20.0019 20.0117 20.0275 20.0492 20.0741 20.0944 20.0942 20.0468 19.9134 19.6449 19.191 
20.891 20.436 20.1496 19.9944 19.928 19.9139 19.9252 19.9454 19.9653 19.9811 19.9921 19.9988 20.0024 20.0041 20.0048 20.005 20.005 20.005 20.0051 20.0052 20.0053 20.0053 20.0052 20.0051 20.0048 20.0044 20.0039 20.0033 20.0026 20.0018 20.0009 19.9998 19.9986 19.9971 19.9956 19.9939 19.9926 19.9921 19.9935 19.998 20.0075 20.0235 20.0469 20.076 20.1044 20.1177 20.0898 19.9805 19.7356 19.2929 
20.9511 20.5077 20.2119 20.04 19.9575 19.9306 19.9336 19.9489 19.9665 19.9817 19.9929 20.0001 20.0044 20.0066 20.0076 20.0079 20.0079 20.0078 20.0076 20.0074 20.0071 20.0067 20.0062 20.0056 20.0049 20.004 20.0031 20.002 20.001 19.9998 19.9986 19.9974 19.996 19.9944 19.9928 19.9911 19.9896 19.9888 19.9897 19.9938 20.0028 20.0189 20.0436 20.0764 20.1124 20.1388 20.1311 20.0486 19.833 19.4122 
20.9877 20.5675 20.27 20.0862 19.9898 19.9513 19.9458 19.9559 19.9709 19.985 19.996 20.0035 20.0081 20.0105 20.0115 20.0117 20.0114 20.0108 20.0101 20.0092 20.0083 20.0072 20.006 20.0046 20.0032 20.0017 20.0002 19.9987 19.9972 19.9958 19.9944 19.9931 19.9917 19.9903 19.9888 19.9873 19.986 19.9853 19.9861 19.9899 19.9986 20.0147 20.0403 20.0761 20.1188 20.1578 20.1702 20.1162 19.935 19.546 
21 20.6141 20.3232 20.1327 20.0254 19.9764 19.9628 19.9676 19.9793 19.9918 20.002 20.0092 20.0135 20.0156 20.0162 20.0157 20.0146 20.0131 20.0114 20.0095 20.0074 20.0053 20.003 20.0008 19.9985 19.9963 19.9942 19.9923 19.9905 19.989 19.9877 19.9866 19.9857 19.9849 19.9841 19.9833 19.9826 19.9825 19.9837 19.9875 19.9962 20.0122 20.0384 20.0765 20.1249 20.1753 20.2072 20.1824 20.0393 19.691 
20.9877 20.6469 20.3708 20.1794 20.0644 20.0065 19.9854 19.9844 19.9923 20.0022 20.0108 20.0168 20.02 20.021 20.0203 20.0184 20.0158 20.0127 20.0094 20.0059 20.0024 19.9988 19.9954 19.9921 19.989 19.9863 19.9838 19.9819 19.9803 19.9792 19.9787 19.9785 19.9787 19.9792 19.9798 19.9805 19.9813 19.9824 19.9846 19.9891 19.9979 20.0138 20.0402 20.0796 20.1324 20.1924 20.2422 20.2463 20.1438 19.8436 
20.9511 20.6654 20.4124 20.2258 20.1068 20.0418 20.0134 20.0063 20.0093 20.0156 20.0212 20.0246 20.0254 20.0241 20.021 20.0168 20.0118 20.0064 20.0009 19.9954 19.9901 19.9851 19.9806 19.9765 19.9731 19.9704 19.9684 19.9672 19.9668 19.9673 19.9685 19.9705 19.973 19.9759 19.979 19.9822 19.9853 19.9885 19.9922 19.9977 20.0068 20.0225 20.0484 20.088 20.1431 20.2103 20.2756 20.3071 20.2462 20 
20.891 20.6691 20.4468 20.2707 20.1512 20.0807 20.0453 20.0312 20.028 20.0287 20.0295 20.0286 20.0254 20.0201 20.0134 20.0057 19.9975 19.9893 19.9813 19.9739 19.9671 19.9612 19.9563 19.9525 19.95 19.9486 19.9486 19.9499 19.9524 19.9561 19.9609 19.9665 19.9729 19.9796 19.9865 19.9932 19.9995 20.0053 20.0111 20.0177 20.0269 20.0417 20.0657 20.1035 20.1584 20.2295 20.3069 20.3632 20.3438 20.1564 
20.809 20.657 20.4717 20.3108 20.1938 20.119 20.076 20.0536 20.0421 20.0351 20.0288 20.0213 20.0122 20.0016 19.9901 19.9782 19.9665 19.9556 19.9457 19.9372 19.9302 19.9251 19.9218 19.9205 19.9212 19.9238 19.9284 19.9347 19.9427 19.9521 19.9626 19.9741 19.986 19.998 20.0097 20.0207 20.0305 20.039 20.0464 20.0533 20.0615 20.0736 20.0937 20.1267 20.1776 20.2482 20.3331 20.4108 20.4325 20.309 
20.7071 20.627 20.4818 20.339 20.2261 20.1471 20.0956 20.0628 20.0405 20.0232 20.0073 19.9913 19.9747 19.9579 19.9413 19.9257 19.9116 19.8995 19.8899 19.883 19.879 19.8781 19.8802 19.8853 19.8932 19.9038 19.9168 19.9318 19.9486 19.9666 19.9854 20.0046 20.0235 20.0417 20.0584 20.0732 20.0856 20.0953 20.1022 20.1071 20.1112 20.1174 20.1296 20.1535 20.1951 20.2596 20.3464 20.4417 20.5055 20.454 
20.5878 20.574 20.4669 20.3418 20.2325 20.1481 20.0862 20.0407 20.0052 19.9753 19.9483 19.9229 19.8989 19.8768 19.857 19.8404 19.8274 19.8186 19.8142 19.8144 19.8192 19.8285 19.842 19.8595 19.8804 19.9043 19.9306 19.9586 19.9876 20.017 20.0459 20.0737 20.0996 20.1228 20.1427 20.1586 20.17 20.1767 20.1785 20.1761 20.1708 20.1653 20.1636 20.1717 20.1971 20.2479 20.3298 20.439 20.5492 20.5878 
20.454 20.4878 20.4083 20.2956 20.1868 20.095 20.0208 19.9608 19.9111 19.8684 19.8311 19.7985 19.7705 19.7478 19.7308 19.7201 19.7161 19.719 19.7288 19.7452 19.768 19.7965 19.83 19.8678 19.9088 19.9521 19.9966 20.0411 20.0847 20.1262 20.1646 20.1989 20.2283 20.2518 20.269 20.2791 20.2818 20.2771 20.2651 20.2466 20.223 20.1971 20.173 20.1567 20.1568 20.1843 20.2519 20.3701 20.5365 20.7071 
20.309 20.3479 20.2741 20.1632 20.0504 19.9492 19.8626 19.7896 19.7284 19.6776 19.6362 19.6043 19.582 19.5697 19.5678 19.5762 19.595 19.6236 19.6615 19.7077 19.7612 19.8205 19.8843 19.9509 20.0188 20.0862 20.1515 20.2131 20.2694 20.3191 20.361 20.3939 20.4171 20.43 20.432 20.4232 20.4035 20.3736 20.334 20.2862 20.2321 20.1744 20.1173 20.0668 20.0315 20.024 20.0632 20.1776 20.408 20.809 
20.1564 20.1126 20.0125 19.8912 19.7715 19.6633 19.57 19.4925 19.4309 19.3853 19.3557 19.3422 19.3449 19.3636 19.3978 19.4467 19.5092 19.5837 19.6685 19.7614 19.8602 19.9625 20.0657 20.1672 20.2647 20.3557 20.4379 20.5093 20.5682 20.6131 20.6429 20.6569 20.6547 20.6363 20.6021 20.553 20.49 20.4148 20.3292 20.2354 20.1362 20.0348 19.9351 19.8425 19.7638 19.7098 19.6994 19.7716 20.0233 20.891 
20 19.691 19.546 19.4122 19.2929 19.191 19.109 19.0489 19.0123 19 19.0123 19.0489 19.109 19.191 19.2929 19.4122 19.546 19.691 19.8436 20 20.1564 20.309 20.454 20.5878 20.7071 20.809 20.891 20.9511 20.9877 21 20.9877 20.9511 20.891 20.809 20.7071 20.5878 20.454 20.309 20.1564 20 19.8436 19.691 19.546 19.4122 19.2929 19.191 19.109 19.0489 19.0123 20.9511 
