# vtk DataFile Version 3.0
Temperature distribution on a 2D grid
ASCII

DATASET STRUCTURED_POINTS
DIMENSIONS 50 50 1
ORIGIN 0.0 0.0 0.0
SPACING 0.01 0.01 1.0

POINT_DATA 2500
SCALARS temperature double
LOOKUP_TABLE default
19.0702 20.8607 20.7705 20.6613 20.5358 20.3971 20.2487 20.0941 19.9372 19.7819 19.6319 19.491 19.3626 19.2499 19.1557 19.0822 19.0314 19.0044 19.002 19.0241 19.0702 19.1393 19.2295 19.3387 19.4642 19.6029 19.7513 19.9059 20.0628 20.2181 20.3681 20.509 20.6374 20.7501 20.8443 20.9178 20.9686 20.9956 20.998 20.9759 20.9298 20.8607 20.7705 20.6613 20.5358 20.3971 20.2487 20.0941 19.9372 19.6319 
19.0241 19.8852 20.1083 20.1461 20.1041 20.0256 19.9308 19.8308 19.7324 19.64 19.5568 19.4851 19.4268 19.383 19.3548 19.3427 19.347 19.3674 19.4034 19.4541 19.5182 19.5942 19.6802 19.774 19.8734 19.976 20.0791 20.1802 20.277 20.3669 20.4477 20.5176 20.5747 20.6176 20.6454 20.6573 20.6532 20.6332 20.5978 20.5479 20.4846 20.4088 20.3215 20.2231 20.1135 19.9923 19.86 19.7213 19.5906 19.491 
19.002 19.5105 19.7642 19.8681 19.8871 19.8611 19.8136 19.7588 19.7052 19.6577 19.6191 19.591 19.5742 19.5687 19.5746 19.5914 19.6186 19.6553 19.7005 19.7531 19.8117 19.875 19.9414 20.0092 20.0767 20.1424 20.2046 20.2617 20.3124 20.3553 20.3895 20.4142 20.4286 20.4325 20.4257 20.4087 20.3818 20.3459 20.3019 20.2509 20.1939 20.1313 20.0628 19.9867 19.9001 19.7989 19.6805 19.5483 19.4235 19.3626 
19.0044 19.3654 19.6076 19.7436 19.804 19.8177 19.8061 19.784 19.7604 19.7408 19.7281 19.7235 19.7272 19.7388 19.7579 19.7836 19.8149 19.8511 19.8909 19.9335 19.9777 20.0224 20.0666 20.1091 20.1489 20.185 20.2166 20.2429 20.2631 20.2769 20.2838 20.2838 20.2767 20.2629 20.2426 20.2166 20.1855 20.1505 20.1125 20.0724 20.0308 19.9877 19.9414 19.8885 19.8232 19.7382 19.6267 19.4889 19.3442 19.2499 
19.0314 19.3166 19.5464 19.7007 19.7894 19.8315 19.8453 19.8447 19.8393 19.835 19.8348 19.8401 19.851 19.867 19.8875 19.9115 19.9381 19.9665 19.9959 20.0253 20.0542 20.0816 20.1071 20.1299 20.1494 20.1653 20.1771 20.1846 20.1875 20.1858 20.1795 20.1687 20.1538 20.1351 20.1131 20.0887 20.0624 20.0354 20.0084 19.9823 19.9573 19.9327 19.9062 19.8727 19.8244 19.7508 19.6411 19.4903 19.312 19.1557 
19.0822 19.3129 19.5294 19.6934 19.8009 19.8627 19.8936 19.9066 19.9113 19.9141 19.9184 19.9258 19.9367 19.9506 19.9671 19.9852 20.0042 20.0233 20.0421 20.0598 20.0761 20.0904 20.1025 20.1121 20.1189 20.1227 20.1235 20.1213 20.1161 20.108 20.0973 20.0841 20.0688 20.0518 20.0337 20.0149 19.9963 19.9787 19.9628 19.9492 19.9381 19.9284 19.9172 19.8986 19.8632 19.7979 19.6879 19.5227 19.3078 19.0822 
19.1557 19.3334 19.5316 19.6976 19.816 19.8907 19.9329 19.9543 19.9644 19.9698 19.9745 19.9803 19.9881 19.9977 20.0086 20.0202 20.0318 20.043 20.0533 20.0624 20.0699 20.0756 20.0795 20.0813 20.0812 20.079 20.075 20.069 20.0614 20.0522 20.0417 20.0301 20.0178 20.005 19.9922 19.9798 19.9685 19.9589 19.9518 19.9477 19.9467 19.9476 19.9474 19.9399 19.9145 19.8563 19.7469 19.5702 19.3227 19.0314 
19.2499 19.3701 19.5426 19.7029 19.8256 19.9081 19.9576 19.9843 19.9973 20.0033 20.0068 20.0101 20.0142 20.0193 20.0251 20.0313 20.0372 20.0426 20.0472 20.0506 20.0528 20.0536 20.0531 20.0513 20.0482 20.044 20.0386 20.0323 20.0251 20.0174 20.0092 20.0007 19.9921 19.9837 19.9757 19.9687 19.9629 19.9591 19.9579 19.96 19.9655 19.9734 19.9809 19.9817 19.9649 19.914 19.8079 19.6249 19.3527 19.0044 
19.3626 19.4196 19.5594 19.707 19.8283 19.9143 19.9684 19.9987 20.0135 20.0198 20.0219 20.0229 20.0239 20.0254 20.0275 20.0297 20.0319 20.0336 20.0347 20.035 20.0345 20.0331 20.0309 20.0279 20.0242 20.0199 20.0151 20.0099 20.0045 19.9989 19.9933 19.9878 19.9826 19.9777 19.9735 19.97 19.9679 19.9677 19.97 19.9755 19.9847 19.997 20.0097 20.0171 20.0082 19.9659 19.8667 19.6837 19.3957 19.002 
19.491 19.4808 19.5817 19.7108 19.826 19.9122 19.9688 20.0016 20.0181 20.0247 20.0262 20.0255 20.0245 20.0237 20.0232 20.0231 20.023 20.0228 20.0222 20.0211 20.0195 20.0175 20.015 20.0121 20.0089 20.0055 20.0019 19.9983 19.9948 19.9913 19.988 19.9849 19.9821 19.9797 19.9778 19.9765 19.9764 19.9779 19.9818 19.9889 19.9999 20.0146 20.031 20.044 20.043 20.0107 19.9219 19.7453 19.4511 19.0241 
19.6319 19.5528 19.6105 19.7163 19.8215 19.9052 19.9627 19.9975 20.0156 20.023 20.0245 20.0232 20.021 20.0189 20.0171 20.0157 20.0145 20.0134 20.0121 20.0107 20.0091 20.0072 20.0051 20.0029 20.0006 19.9983 19.996 19.9939 19.9918 19.99 19.9883 19.9869 19.9856 19.9847 19.984 19.9838 19.9845 19.9865 19.9907 19.9981 20.0096 20.0256 20.0448 20.0627 20.0698 20.0488 19.9736 19.8093 19.5179 19.0702 
19.7819 19.6344 19.6465 19.7256 19.8176 19.8965 19.9536 19.9898 20.0095 20.0181 20.0201 20.0189 20.0164 20.0137 20.0114 20.0095 20.008 20.0066 20.0053 20.004 20.0027 20.0013 19.9999 19.9984 19.997 19.9957 19.9945 19.9934 19.9924 19.9916 19.991 19.9905 19.9902 19.9899 19.9897 19.9899 19.9906 19.9924 19.9962 20.0032 20.0145 20.031 20.0521 20.0746 20.0897 20.0811 20.0222 19.8752 19.5951 19.1393 
19.9372 19.7244 19.6899 19.7398 19.8162 19.8883 19.9438 19.9807 20.002 20.012 20.0151 20.0144 20.0122 20.0096 20.0072 20.0052 20.0036 20.0024 20.0013 20.0003 19.9994 19.9986 19.9977 19.997 19.9962 19.9956 19.9951 19.9947 19.9944 19.9943 19.9942 19.9942 19.9942 19.9941 19.9941 19.9941 19.9945 19.9958 19.9988 20.0049 20.0155 20.032 20.0547 20.0811 20.1042 20.1086 20.0679 19.9426 19.6815 19.2295 
20.0941 19.8209 19.7403 19.7597 19.8185 19.8822 19.9348 19.9719 19.9944 20.006 20.0103 20.0106 20.0089 20.0066 20.0044 20.0026 20.0011 20.0001 19.9993 19.9987 19.9982 19.9977 19.9974 19.997 19.9968 19.9966 19.9965 19.9965 19.9966 19.9967 19.9969 19.9971 19.9972 19.9971 19.9969 19.9967 19.9966 19.9971 19.9992 20.0043 20.0139 20.0301 20.0537 20.0837 20.1143 20.1317 20.1106 20.0104 19.7752 19.3387 
20.2487 19.9216 19.7969 19.7853 19.8251 19.8789 19.9276 19.964 19.9875 20.0005 20.0062 20.0075 20.0065 20.0047 20.0028 20.0012 20 19.9992 19.9986 19.9983 19.998 19.9979 19.9978 19.9978 19.9978 19.9979 19.998 19.9982 19.9984 19.9986 19.9989 19.999 19.9991 19.9989 19.9985 19.9979 19.9973 19.9972 19.9984 20.0023 20.0108 20.0262 20.0504 20.0832 20.1207 20.1509 20.15 20.0776 19.8743 19.4642 
20.3971 20.0243 19.8585 19.8163 19.8362 19.8788 19.9225 19.9575 19.9814 19.9957 20.0026 20.005 20.0048 20.0036 20.0021 20.0007 19.9997 19.999 19.9986 19.9985 19.9984 19.9984 19.9985 19.9986 19.9988 19.9989 19.9991 19.9994 19.9996 19.9999 20.0001 20.0002 20.0002 19.9999 19.9993 19.9984 19.9974 19.9966 19.9968 19.9996 20.0069 20.0213 20.0454 20.0804 20.1238 20.1661 20.1856 20.1427 19.9764 19.6029 
20.5358 20.1264 19.9238 19.8519 19.8515 19.882 19.9196 19.9524 19.9764 19.9915 19.9996 20.003 20.0036 20.0029 20.0018 20.0007 19.9998 19.9993 19.999 19.9989 19.9989 19.999 19.9991 19.9993 19.9995 19.9997 19.9999 20.0001 20.0004 20.0006 20.0007 20.0008 20.0007 20.0003 19.9996 19.9985 19.9971 19.9957 19.9951 19.9967 20.0027 20.0158 20.0393 20.0755 20.1239 20.1773 20.2166 20.2044 20.079 19.7513 
20.6613 20.2255 19.991 19.8913 19.8706 19.8884 19.919 19.9489 19.9722 19.9878 19.9969 20.0013 20.0027 20.0025 20.0017 20.0008 20.0001 19.9996 19.9994 19.9993 19.9993 19.9995 19.9996 19.9998 20 20.0002 20.0003 20.0005 20.0007 20.0009 20.001 20.001 20.0008 20.0004 19.9996 19.9984 19.9967 19.9948 19.9935 19.994 19.9984 20.01 20.0323 20.069 20.1211 20.1842 20.2424 20.2611 20.1798 19.9059 
20.7705 20.319 20.0584 19.9335 19.8931 19.8976 19.9206 19.9468 19.9689 19.9847 19.9945 19.9997 20.0018 20.0021 20.0017 20.001 20.0004 19.9999 19.9997 19.9996 19.9997 19.9998 19.9999 20.0001 20.0002 20.0004 20.0005 20.0007 20.0008 20.0009 20.001 20.001 20.0008 20.0004 19.9996 19.9983 19.9964 19.9942 19.9921 19.9915 19.9944 20.0041 20.0247 20.0609 20.1156 20.1868 20.2623 20.3115 20.2762 20.0628 
20.8607 20.4047 20.1246 19.9775 19.9184 19.9095 19.9243 19.9461 19.9665 19.9821 19.9923 19.9982 20.0009 20.0017 20.0016 20.0011 20.0006 20.0002 19.9999 19.9999 19.9999 19.9999 20.0001 20.0002 20.0003 20.0004 20.0005 20.0006 20.0007 20.0008 20.0009 20.0009 20.0007 20.0003 19.9996 19.9982 19.9963 19.9937 19.9911 19.9894 19.9907 19.9983 20.0167 20.0515 20.1073 20.1849 20.2759 20.3542 20.3658 20.2181 
20.9298 20.4805 20.1876 20.022 19.9456 19.9237 19.9298 19.9468 19.965 19.9799 19.9904 19.9967 20 20.0013 20.0015 20.0011 20.0007 20.0003 20.0001 20 20 20 20.0001 20.0002 20.0003 20.0004 20.0005 20.0005 20.0006 20.0007 20.0008 20.0008 20.0007 20.0003 19.9996 19.9983 19.9963 19.9935 19.9903 19.9876 19.9873 19.9926 20.0084 20.041 20.0965 20.1785 20.2828 20.3883 20.4465 20.3681 
20.9759 20.5444 20.2461 20.0659 19.9743 19.9398 19.9371 19.9488 19.9643 19.9782 19.9886 19.9953 19.999 20.0007 20.0012 20.0011 20.0008 20.0004 20.0002 20.0001 20 20 20.0001 20.0002 20.0002 20.0003 20.0003 20.0004 20.0005 20.0005 20.0006 20.0007 20.0006 20.0004 19.9997 19.9985 19.9965 19.9936 19.9899 19.9862 19.9843 19.9872 20 20.0295 20.0833 20.1678 20.2827 20.4129 20.5162 20.509 
20.998 20.595 20.2985 20.1083 20.0035 19.9573 19.946 19.9521 19.9645 19.977 19.9871 19.9939 19.998 20.0001 20.0009 20.001 20.0007 20.0005 20.0002 20.0001 20 20 20 20.0001 20.0001 20.0002 20.0002 20.0003 20.0003 20.0004 20.0005 20.0006 20.0006 20.0004 19.9999 19.9988 19.9968 19.9938 19.9898 19.9853 19.9817 19.9822 19.9916 20.0173 20.0682 20.153 20.2757 20.4273 20.5731 20.6374 
20.9956 20.6308 20.3435 20.148 20.0327 19.9759 19.9561 19.9565 19.9655 19.9764 19.9858 19.9927 19.9971 19.9994 20.0005 20.0008 20.0007 20.0004 20.0002 20.0001 20 20 20 20 20.0001 20.0001 20.0001 20.0002 20.0002 20.0003 20.0004 20.0005 20.0006 20.0005 20.0001 19.9991 19.9973 19.9943 19.99 19.9847 19.9797 19.9776 19.9835 20.0047 20.0514 20.1345 20.262 20.4312 20.616 20.7501 
20.9686 20.6512 20.3801 20.184 20.061 19.995 19.9673 19.962 19.9674 19.9763 19.9849 19.9916 19.9961 19.9988 20.0001 20.0005 20.0006 20.0004 20.0002 20.0001 20 20 20 20 20 20.0001 20.0001 20.0001 20.0002 20.0002 20.0004 20.0005 20.0006 20.0006 20.0003 19.9995 19.9978 19.9949 19.9904 19.9845 19.9781 19.9736 19.9758 19.9921 20.0333 20.1126 20.2418 20.4245 20.6437 20.8443 
20.9178 20.6555 20.4073 20.2155 20.0878 20.0142 19.9793 19.9684 19.97 19.9768 19.9843 19.9907 19.9953 19.9981 19.9996 20.0003 20.0004 20.0004 20.0002 20.0001 20 20 20 20 20 20 20.0001 20.0001 20.0001 20.0002 20.0003 20.0005 20.0006 20.0007 20.0006 19.9999 19.9984 19.9956 19.991 19.9847 19.9771 19.9703 19.9686 19.9796 20.0144 20.088 20.2156 20.4073 20.6555 20.9178 
20.8443 20.6436 20.4244 20.2416 20.1124 20.0331 19.9918 19.9755 19.9733 19.9778 19.9841 19.99 19.9945 19.9975 19.9992 20 20.0003 20.0003 20.0002 20.0001 20.0001 20 20 20 20 20 20 20.0001 20.0001 20.0002 20.0003 20.0004 20.0007 20.0008 20.0008 20.0003 19.9991 19.9964 19.9919 19.9852 19.9766 19.9676 19.9622 19.9675 19.9952 20.0611 20.1841 20.3801 20.6512 20.9686 
20.7501 20.6159 20.4311 20.2618 20.1343 20.0512 20.0045 19.9832 19.9773 19.9793 19.9843 19.9896 19.9939 19.9969 19.9988 19.9998 20.0002 20.0003 20.0003 20.0002 20.0001 20.0001 20.0001 20.0001 20.0001 20.0001 20.0001 20.0001 20.0001 20.0001 20.0002 20.0004 20.0007 20.0009 20.001 20.0007 19.9997 19.9973 19.993 19.9861 19.9766 19.9657 19.9567 19.9563 19.976 20.0328 20.1481 20.3436 20.6309 20.9956 
20.6374 20.5731 20.4272 20.2756 20.1528 20.068 20.0171 19.9914 19.9819 19.9814 19.9849 19.9894 19.9935 19.9965 19.9985 19.9996 20.0001 20.0003 20.0003 20.0003 20.0002 20.0002 20.0002 20.0001 20.0001 20.0001 20.0001 20.0001 20.0001 20.0001 20.0002 20.0004 20.0006 20.0009 20.0011 20.0011 20.0003 19.9982 19.9941 19.9873 19.9772 19.9647 19.9523 19.9461 19.9574 20.0036 20.1084 20.2985 20.595 20.998 
20.509 20.5161 20.4128 20.2826 20.1677 20.0831 20.0292 19.9998 19.9869 19.984 19.9859 19.9896 19.9933 19.9962 19.9982 19.9994 20.0001 20.0004 20.0004 20.0004 20.0004 20.0003 20.0003 20.0002 20.0002 20.0002 20.0001 20.0001 20.0001 20.0001 20.0001 20.0003 20.0005 20.0009 20.0012 20.0013 20.0009 19.9992 19.9954 19.9887 19.9784 19.9645 19.949 19.9373 19.9399 19.9744 20.066 20.2461 20.5445 20.9759 
20.3681 20.4465 20.3883 20.2827 20.1784 20.0963 20.0408 20.0082 19.9924 19.987 19.9873 19.9901 19.9933 19.996 19.9981 19.9994 20.0001 20.0004 20.0005 20.0005 20.0005 20.0004 20.0004 20.0003 20.0002 20.0002 20.0001 20 20 19.9999 20 20.0001 20.0004 20.0008 20.0012 20.0015 20.0013 20.0001 19.9968 19.9905 19.9801 19.9651 19.947 19.93 19.9238 19.9457 20.0221 20.1877 20.4805 20.9298 
20.2181 20.3658 20.3542 20.2759 20.1849 20.1072 20.0514 20.0166 19.9981 19.9905 19.9892 19.9909 19.9935 19.9961 19.998 19.9993 20.0001 20.0005 20.0007 20.0007 20.0006 20.0005 20.0004 20.0003 20.0002 20.0001 20 19.9999 19.9998 19.9997 19.9997 19.9998 20.0001 20.0005 20.0011 20.0016 20.0018 20.0009 19.9982 19.9924 19.9822 19.9667 19.9463 19.9244 19.9097 19.9185 19.9776 20.1246 20.4048 20.8607 
20.0628 20.2762 20.3115 20.2624 20.1869 20.1156 20.061 20.0248 20.0041 19.9944 19.9915 19.9921 19.9941 19.9963 19.9981 19.9994 20.0002 20.0006 20.0007 20.0007 20.0006 20.0005 20.0003 20.0002 20 19.9999 19.9997 19.9996 19.9994 19.9994 19.9993 19.9995 19.9997 20.0002 20.0009 20.0016 20.0021 20.0018 19.9998 19.9947 19.9849 19.9691 19.947 19.9208 19.8979 19.8933 19.9337 20.0586 20.3191 20.7705 
19.9059 20.1799 20.2612 20.2426 20.1845 20.1214 20.0692 20.0326 20.0102 19.9986 19.9941 19.9936 19.9948 19.9966 19.9982 19.9994 20.0001 20.0005 20.0006 20.0005 20.0004 20.0002 20 19.9998 19.9996 19.9994 19.9992 19.9991 19.9989 19.9988 19.9988 19.999 19.9993 19.9999 20.0007 20.0016 20.0025 20.0028 20.0015 19.9972 19.9882 19.9726 19.9493 19.9194 19.8887 19.871 19.8916 19.9911 20.2256 20.6613 
19.7513 20.0792 20.2046 20.2169 20.1777 20.1244 20.076 20.0397 20.0162 20.003 19.997 19.9952 19.9957 19.9969 19.9982 19.9992 19.9998 20.0001 20.0001 20 19.9997 19.9995 19.9992 19.999 19.9988 19.9986 19.9984 19.9983 19.9982 19.9982 19.9983 19.9985 19.9989 19.9996 20.0006 20.0018 20.0031 20.004 20.0034 20.0001 19.9921 19.977 19.9531 19.9202 19.8826 19.852 19.8523 19.924 20.1266 20.5358 
19.6029 19.9765 20.1431 20.186 20.1667 20.1244 20.081 20.046 20.0218 20.0073 19.9998 19.9969 19.9964 19.997 19.9979 19.9986 19.999 19.9991 19.999 19.9988 19.9985 19.9982 19.998 19.9978 19.9976 19.9975 19.9974 19.9975 19.9975 19.9977 19.9979 19.9983 19.9989 19.9997 20.0009 20.0025 20.0042 20.0056 20.0059 20.0037 19.9967 19.9826 19.9585 19.9235 19.8797 19.8369 19.8168 19.8589 20.0245 20.3971 
19.4642 19.8745 20.0779 20.1505 20.1515 20.1213 20.0838 20.0509 20.0266 20.011 20.0022 19.998 19.9965 19.9964 19.9968 19.9971 19.9973 19.9973 19.9971 19.9969 19.9966 19.9964 19.9962 19.9961 19.9961 19.9962 19.9964 19.9967 19.9971 19.9975 19.998 19.9986 19.9995 20.0006 20.0021 20.0039 20.006 20.008 20.0091 20.0079 20.0022 19.9892 19.9656 19.929 19.88 19.826 19.786 19.7973 19.9218 20.2487 
19.3387 19.7753 20.0106 20.1108 20.1319 20.1144 20.0838 20.0536 20.0297 20.0133 20.0033 19.9979 19.9954 19.9945 19.9944 19.9944 19.9944 19.9943 19.9941 19.994 19.9939 19.9939 19.994 19.9943 19.9947 19.9952 19.9959 19.9966 19.9974 19.9983 19.9992 20.0002 20.0014 20.0028 20.0045 20.0066 20.009 20.0115 20.0132 20.013 20.0085 19.9967 19.9739 19.9365 19.8834 19.8194 19.7603 19.7406 19.821 20.0941 
19.2295 19.6813 19.9421 20.0672 20.1077 20.1031 20.0799 20.0531 20.0301 20.0132 20.0022 19.9958 19.9923 19.9908 19.9901 19.9899 19.9899 19.99 19.9901 19.9904 19.9908 19.9913 19.9921 19.993 19.9941 19.9953 19.9967 19.9981 19.9996 20.001 20.0025 20.0039 20.0054 20.007 20.0089 20.011 20.0135 20.0161 20.0182 20.0187 20.0152 20.0046 19.9828 19.9453 19.8892 19.8166 19.7399 19.6898 19.7243 19.9372 
19.1393 19.5943 19.8735 20.0198 20.0781 20.0862 20.0707 20.0478 20.0263 20.0094 19.9978 19.9905 19.9864 19.9845 19.9837 19.9837 19.9841 19.9847 19.9856 19.9867 19.9881 19.9897 19.9915 19.9935 19.9957 19.998 20.0003 20.0026 20.0048 20.0069 20.0088 20.0105 20.0122 20.0138 20.0154 20.0172 20.0193 20.0216 20.0236 20.0241 20.0213 20.0117 19.991 19.9539 19.8959 19.8165 19.7242 19.6453 19.6338 19.7819 
19.0702 19.5158 19.8054 19.9681 20.0421 20.0621 20.0544 20.036 20.0165 20.0004 19.9888 19.9814 19.9773 19.9756 19.9754 19.9762 19.9777 19.9797 19.9821 19.9848 19.9878 19.991 19.9944 19.998 20.0016 20.0052 20.0086 20.0118 20.0147 20.0172 20.0192 20.0209 20.0221 20.0231 20.0239 20.0246 20.0256 20.0267 20.0277 20.0277 20.0247 20.0158 19.9961 19.96 19.9014 19.8172 19.7122 19.6072 19.5509 19.6319 
19.0241 19.4472 19.7379 19.9115 19.9981 20.0289 20.0291 20.0159 19.9995 19.9851 19.9747 19.9684 19.9655 19.9652 19.9668 19.9696 19.9734 19.9777 19.9826 19.9877 19.9931 19.9986 20.0042 20.0096 20.0148 20.0196 20.0239 20.0276 20.0306 20.0328 20.0342 20.0348 20.0347 20.0339 20.0327 20.0312 20.0299 20.0287 20.0277 20.026 20.0222 20.0133 19.9946 19.96 19.9023 19.8159 19.7017 19.5749 19.4771 19.491 
19.002 19.3891 19.6712 19.8493 19.9452 19.9855 19.9937 19.9866 19.9748 19.9641 19.9568 19.9535 19.9537 19.9566 19.9617 19.9681 19.9756 19.9836 19.992 20.0005 20.009 20.0172 20.0249 20.032 20.0383 20.0437 20.048 20.051 20.0528 20.0533 20.0525 20.0504 20.0471 20.0428 20.0379 20.0327 20.0275 20.0227 20.0184 20.0141 20.0086 19.9994 19.9818 19.9496 19.8947 19.8094 19.6906 19.5474 19.4133 19.3626 
19.0044 19.3426 19.606 19.782 19.8835 19.9322 19.949 19.9498 19.9451 19.9408 19.9395 19.942 19.9479 19.9566 19.9673 19.9793 19.992 20.0049 20.0177 20.03 20.0415 20.052 20.0612 20.0688 20.0747 20.0788 20.0809 20.0811 20.0792 20.0753 20.0696 20.0621 20.0532 20.0432 20.0325 20.0215 20.0109 20.0011 19.9925 19.985 19.9776 19.9681 19.9524 19.9242 19.875 19.795 19.6774 19.5245 19.3608 19.2499 
19.0314 19.3092 19.5447 19.7124 19.8165 19.8732 19.9002 19.9119 19.918 19.924 19.9325 19.9444 19.9593 19.9765 19.9952 20.0144 20.0334 20.0517 20.0687 20.084 20.0971 20.1079 20.1159 20.1211 20.1233 20.1225 20.1186 20.1119 20.1023 20.0902 20.0758 20.0596 20.042 20.0235 20.0047 19.9864 19.9692 19.9539 19.941 19.9307 19.9224 19.9143 19.9027 19.8816 19.842 19.7729 19.6635 19.509 19.3229 19.1557 
19.0822 19.2925 19.4936 19.6488 19.7541 19.82 19.8605 19.8873 19.909 19.9302 19.9532 19.9785 20.0056 20.0335 20.0614 20.0881 20.1129 20.135 20.1537 20.1686 20.1793 20.1856 20.1873 20.1844 20.177 20.1651 20.1492 20.1297 20.1069 20.0814 20.0539 20.0251 19.9958 19.9666 19.9386 19.9125 19.8894 19.87 19.855 19.8449 19.8392 19.8365 19.8336 19.8248 19.8012 19.7505 19.6579 19.5104 19.3075 19.0822 
19.1557 19.3004 19.4668 19.6093 19.7172 19.7958 19.8545 19.9022 19.945 19.9866 20.0281 20.0696 20.1103 20.1491 20.1847 20.2161 20.2424 20.2628 20.2766 20.2837 20.2838 20.2768 20.263 20.2427 20.2165 20.1849 20.1488 20.109 20.0664 20.0223 19.9775 19.9334 19.8909 19.8511 19.8153 19.7844 19.7594 19.7412 19.7305 19.7276 19.7322 19.7429 19.757 19.769 19.7705 19.7481 19.6834 19.5531 19.3354 19.0314 
19.2499 19.3507 19.4919 19.6274 19.7433 19.8402 19.9232 19.9973 20.0661 20.131 20.1922 20.2491 20.3004 20.3449 20.3812 20.4084 20.4256 20.4324 20.4285 20.4141 20.3895 20.3553 20.3123 20.2616 20.2045 20.1423 20.0766 20.0091 19.9413 19.8749 19.8116 19.753 19.7004 19.6553 19.6188 19.592 19.5757 19.5705 19.5766 19.5941 19.6222 19.6596 19.7033 19.7486 19.7875 19.807 19.7858 19.6885 19.4585 19.0044 
19.3626 19.4817 19.6199 19.7602 19.8922 20.0138 20.1257 20.2289 20.3234 20.4088 20.4838 20.547 20.5971 20.6327 20.6529 20.6572 20.6453 20.6176 20.5746 20.5175 20.4477 20.3668 20.2769 20.1802 20.079 19.9759 19.8734 19.774 19.6801 19.5941 19.5182 19.454 19.4034 19.3674 19.3471 19.343 19.3554 19.3839 19.4281 19.4868 19.5585 19.6411 19.7316 19.8255 19.9165 19.9941 20.0392 20.0115 19.8116 19.002 
19.491 19.7819 19.9372 20.0941 20.2487 20.3971 20.5358 20.6613 20.7705 20.8607 20.9298 20.9759 20.998 20.9956 20.9686 20.9178 20.8443 20.7501 20.6374 20.509 20.3681 20.2181 20.0628 19.9059 19.7513 19.6029 19.4642 19.3387 19.2295 19.1393 19.0702 19.0241 19.002 19.0044 19.0314 19.0822 19.1557 19.2499 19.3626 19.491 19.6319 19.7819 19.9372 20.0941 20.2487 20.3971 20.5358 20.6613 20.7705 19.0241 
