# vtk DataFile Version 3.0
Temperature distribution on a 2D grid
ASCII

DATASET STRUCTURED_POINTS
DIMENSIONS 50 50 1
ORIGIN 0.0 0.0 0.0
SPACING 0.01 0.01 1.0

POINT_DATA 2500
SCALARS temperature double
LOOKUP_TABLE default
19.491 20.3681 20.2181 20.0628 19.9059 19.7513 19.6029 19.4642 19.3387 19.2295 19.1393 19.0702 19.0241 19.002 19.0044 19.0314 19.0822 19.1557 19.2499 19.3626 19.491 19.6319 19.7819 19.9372 20.0941 20.2487 20.3971 20.5358 20.6613 20.7705 20.8607 20.9298 20.9759 20.998 20.9956 20.9686 20.9178 20.8443 20.7501 20.6374 20.509 20.3681 20.2181 20.0628 19.9059 19.7513 19.6029 19.4642 19.3387 19.1393 
19.3626 19.8069 19.864 19.8165 19.7336 19.6428 19.557 19.4825 19.4225 19.3788 19.3523 19.3432 19.3514 19.3762 19.4168 19.472 19.5404 19.6202 19.7095 19.8058 19.907 20.0105 20.1138 20.2142 20.3094 20.3969 20.4747 20.5408 20.5935 20.6317 20.6543 20.6608 20.6511 20.6253 20.5843 20.5289 20.4608 20.3816 20.2935 20.1987 20.0997 19.9987 19.8976 19.7973 19.6974 19.5954 19.4869 19.3659 19.2285 19.0702 
19.2499 19.6021 19.7331 19.7551 19.7279 19.6839 19.6402 19.6052 19.5828 19.5744 19.5798 19.5982 19.6285 19.6692 19.719 19.7762 19.8392 19.9064 19.9759 20.0461 20.1152 20.1815 20.2433 20.2991 20.3476 20.3875 20.4178 20.4379 20.4472 20.4455 20.4328 20.4095 20.3761 20.3336 20.283 20.2256 20.1631 20.0972 20.0298 19.9628 19.8981 19.8369 19.7796 19.7248 19.6684 19.6027 19.516 19.3946 19.2284 19.0241 
19.1557 19.5124 19.6964 19.7718 19.7878 19.7775 19.7605 19.7474 19.7434 19.75 19.767 19.7932 19.8271 19.8671 19.9116 19.959 20.0078 20.0567 20.1043 20.1494 20.1909 20.2277 20.2589 20.2837 20.3016 20.312 20.3147 20.3097 20.2971 20.2772 20.2504 20.2175 20.1794 20.1369 20.0912 20.0436 19.9956 19.9485 19.904 19.8636 19.8285 19.7995 19.7757 19.754 19.7277 19.685 19.6086 19.4778 19.2753 19.002 
19.0822 19.4595 19.6868 19.8051 19.8555 19.87 19.8699 19.8681 19.871 19.8811 19.8986 19.9225 19.9512 19.9833 20.0173 20.0516 20.0853 20.1171 20.1463 20.1719 20.1933 20.21 20.2215 20.2276 20.2281 20.223 20.2124 20.1965 20.1758 20.1508 20.1221 20.0905 20.0567 20.0216 19.9862 19.9516 19.9189 19.8893 19.8641 19.8446 19.8316 19.8253 19.8245 19.8251 19.8186 19.7905 19.7195 19.5789 19.3436 19.0044 
19.0314 19.419 19.6767 19.8279 19.9052 19.9384 19.9499 19.9537 19.958 19.9663 19.9795 19.9971 20.0179 20.0404 20.0636 20.0861 20.1071 20.1258 20.1416 20.154 20.1627 20.1674 20.168 20.1645 20.1569 20.1454 20.1304 20.1122 20.0912 20.068 20.0431 20.0172 19.9909 19.9651 19.9403 19.9176 19.8977 19.8816 19.8704 19.8652 19.8667 19.8751 19.8889 19.9037 19.9103 19.8928 19.8269 19.6813 19.4231 19.0314 
19.0044 19.3849 19.6588 19.8327 19.9303 19.9782 19.9982 20.0054 20.0092 20.0142 20.0222 20.033 20.0461 20.0603 20.0745 20.0879 20.0998 20.1095 20.1168 20.1214 20.1229 20.1215 20.1172 20.1099 20.0999 20.0875 20.0729 20.0565 20.0388 20.0201 20.0009 19.9818 19.9631 19.9456 19.9297 19.916 19.9053 19.8984 19.8963 19.8998 19.91 19.9269 19.9493 19.9731 19.9891 19.9808 19.9224 19.7787 19.5097 19.0822 
19.002 19.3582 19.6345 19.8216 19.9339 19.9933 20.0203 20.0305 20.0339 20.0361 20.0396 20.045 20.0519 20.0597 20.0675 20.0747 20.0806 20.0849 20.0874 20.0878 20.0861 20.0823 20.0765 20.0688 20.0594 20.0486 20.0366 20.0237 20.0102 19.9964 19.9828 19.9696 19.9573 19.9462 19.9367 19.9293 19.9246 19.9233 19.9262 19.9345 19.949 19.9704 19.9977 20.0273 20.0508 20.0519 20.0042 19.8697 19.602 19.1557 
19.0241 19.3412 19.6079 19.8 19.9219 19.9904 20.0238 20.0373 20.0412 20.0418 20.0423 20.044 20.0467 20.0502 20.0538 20.0571 20.0595 20.0608 20.0609 20.0595 20.0568 20.0526 20.0472 20.0407 20.0331 20.0247 20.0158 20.0064 19.9969 19.9874 19.9783 19.9698 19.9621 19.9555 19.9502 19.9468 19.9455 19.9472 19.9526 19.9629 19.9792 20.0024 20.0322 20.066 20.0961 20.1074 20.0734 19.9546 19.6992 19.2499 
19.0702 19.3363 19.5836 19.7734 19.9006 19.9762 20.0155 20.0327 20.0382 20.0386 20.0378 20.0372 20.0375 20.0384 20.0395 20.0405 20.0411 20.041 20.0401 20.0383 20.0356 20.0321 20.0278 20.0228 20.0172 20.0113 20.005 19.9987 19.9924 19.9862 19.9804 19.9752 19.9706 19.9669 19.9643 19.963 19.9636 19.9666 19.9728 19.9835 19.9999 20.0234 20.0544 20.0912 20.1276 20.1496 20.1319 20.0342 19.8003 19.3626 
19.1393 19.3454 19.565 19.7465 19.8752 19.9558 20.0006 20.0219 20.0298 20.0313 20.0303 20.0289 20.028 20.0275 20.0273 20.0272 20.0269 20.0263 20.0252 20.0235 20.0214 20.0187 20.0156 20.0121 20.0083 20.0043 20.0003 19.9962 19.9922 19.9884 19.9849 19.9818 19.9792 19.9772 19.9761 19.9759 19.9772 19.9805 19.9866 19.9967 20.0124 20.0354 20.0667 20.1057 20.1478 20.1809 20.1813 20.1087 19.9041 19.491 
19.2295 19.3692 19.5545 19.7225 19.8492 19.9331 19.9825 20.0081 20.0192 20.0225 20.0223 20.0211 20.0198 20.0188 20.0181 20.0175 20.0169 20.0162 20.0152 20.0139 20.0123 20.0105 20.0084 20.0061 20.0037 20.0011 19.9986 19.9961 19.9936 19.9914 19.9893 19.9876 19.9862 19.9852 19.9848 19.9851 19.9866 19.9896 19.995 20.0041 20.0186 20.0404 20.0714 20.112 20.1593 20.2033 20.2224 20.1779 20.0089 19.6319 
19.3387 19.4078 19.5537 19.7036 19.8251 19.9104 19.9637 19.9934 20.0079 20.0136 20.0149 20.0143 20.0133 20.0123 20.0115 20.0108 20.0102 20.0096 20.0088 20.0079 20.0069 20.0057 20.0043 20.0029 20.0014 19.9999 19.9984 19.9969 19.9955 19.9942 19.993 19.9921 19.9913 19.9909 19.9908 19.9912 19.9924 19.9949 19.9994 20.0073 20.0202 20.0405 20.0706 20.112 20.1636 20.2179 20.256 20.2412 20.1127 19.7819 
19.4642 19.4606 19.5633 19.6913 19.8046 19.8893 19.9454 19.9788 19.9967 20.0051 20.0082 20.0088 20.0084 20.0077 20.007 20.0065 20.006 20.0055 20.005 20.0044 20.0037 20.003 20.0022 20.0013 20.0004 19.9995 19.9987 19.9978 19.997 19.9963 19.9957 19.9952 19.9948 19.9945 19.9945 19.9949 19.9957 19.9976 20.0011 20.0075 20.0187 20.037 20.0657 20.1072 20.1621 20.2256 20.2819 20.2977 20.2133 19.9372 
19.6029 19.5266 19.5834 19.6864 19.7887 19.8707 19.9284 19.965 19.9862 19.9972 20.0023 20.0042 20.0046 20.0045 20.0041 20.0037 20.0034 20.003 20.0027 20.0023 20.0019 20.0015 20.001 20.0005 20 19.9995 19.9991 19.9986 19.9982 19.9978 19.9974 19.9972 19.9969 19.9968 19.9967 19.9969 19.9974 19.9985 20.001 20.0059 20.0151 20.0312 20.0578 20.0985 20.1556 20.2269 20.3003 20.3464 20.3085 20.0941 
19.7513 19.6041 19.6136 19.689 19.7779 19.8555 19.9134 19.9524 19.9764 19.99 19.9971 20.0004 20.0018 20.0022 20.0022 20.002 20.0018 20.0016 20.0014 20.0012 20.001 20.0007 20.0005 20.0002 19.9999 19.9997 19.9994 19.9992 19.9989 19.9987 19.9985 19.9984 19.9982 19.9981 19.9979 19.9978 19.9979 19.9984 19.9997 20.0031 20.0102 20.0238 20.0478 20.0867 20.1447 20.2221 20.311 20.3864 20.3959 20.2487 
19.9059 19.6914 19.6534 19.6993 19.7727 19.8438 19.9007 19.9412 19.9676 19.9835 19.9925 19.9972 19.9995 20.0005 20.0009 20.0009 20.0009 20.0008 20.0007 20.0006 20.0005 20.0003 20.0002 20.0001 19.9999 19.9998 19.9996 19.9995 19.9994 19.9993 19.9992 19.9991 19.9989 19.9987 19.9985 19.9982 19.9978 19.9976 19.9979 19.9996 20.0045 20.0153 20.0361 20.0725 20.1299 20.2117 20.3139 20.4167 20.4735 20.3971 
20.0628 19.7864 19.7017 19.7171 19.7731 19.8361 19.8906 19.9316 19.9598 19.9776 19.9883 19.9943 19.9976 19.9992 19.9999 20.0002 20.0004 20.0004 20.0003 20.0003 20.0002 20.0002 20.0001 20 19.9999 19.9999 19.9998 19.9997 19.9997 19.9996 19.9995 19.9994 19.9993 19.9991 19.9987 19.9982 19.9974 19.9965 19.9957 19.9959 19.9984 20.0062 20.0234 20.0563 20.1118 20.196 20.3089 20.4368 20.5394 20.5358 
20.2181 19.8865 19.7573 19.7418 19.7791 19.8325 19.8833 19.9239 19.9531 19.9725 19.9847 19.9918 19.9959 19.9981 19.9992 19.9997 20 20.0001 20.0001 20.0001 20.0001 20.0001 20 20 20 19.9999 19.9999 19.9999 19.9998 19.9998 19.9997 19.9996 19.9995 19.9992 19.9987 19.998 19.9968 19.9953 19.9935 19.992 19.9922 19.9968 20.01 20.0386 20.0909 20.1754 20.2964 20.4461 20.5921 20.6613 
20.3681 19.9895 19.819 19.7729 19.7906 19.8331 19.8788 19.918 19.9476 19.9681 19.9815 19.9897 19.9945 19.9972 19.9986 19.9994 19.9998 19.9999 20 20 20 20 20 20 20 20 19.9999 19.9999 19.9999 19.9999 19.9998 19.9997 19.9995 19.9992 19.9986 19.9977 19.9962 19.9941 19.9913 19.9883 19.9862 19.9874 19.9964 20.02 20.0678 20.1504 20.2765 20.4444 20.6301 20.7705 
20.509 20.0927 19.8851 19.8096 19.8072 19.8378 19.8774 19.9142 19.9435 19.9646 19.9788 19.9878 19.9932 19.9964 19.9981 19.9991 19.9996 19.9998 19.9999 20 20 20 20 20 20 20 20 20 19.9999 19.9999 19.9999 19.9997 19.9995 19.9992 19.9985 19.9974 19.9956 19.993 19.9893 19.9848 19.9804 19.9783 19.9827 20.0008 20.0429 20.1218 20.2498 20.4317 20.6527 20.8607 
20.6374 20.1937 19.954 19.851 19.8286 19.8465 19.8791 19.9126 19.9407 19.9619 19.9766 19.9862 19.9922 19.9957 19.9977 19.9989 19.9994 19.9997 19.9999 20 20 20 20 20 20 20 20 20 20 19.9999 19.9999 19.9998 19.9995 19.9991 19.9984 19.9972 19.9951 19.992 19.9875 19.9817 19.9751 19.9697 19.9695 19.9816 20.017 20.0901 20.2169 20.4084 20.6591 20.9298 
20.7501 20.2899 20.0241 19.8961 19.8543 19.8589 19.8837 19.9131 19.9395 19.9602 19.9751 19.9851 19.9914 19.9952 19.9974 19.9987 19.9993 19.9997 19.9998 19.9999 20 20 20 20 20 20 20 20 20 19.9999 19.9999 19.9998 19.9995 19.9991 19.9983 19.997 19.9948 19.9913 19.9861 19.979 19.9704 19.9619 19.9571 19.9629 19.9907 20.0562 20.1787 20.3751 20.6494 20.9759 
20.8443 20.3789 20.0936 19.9438 19.8835 19.8749 19.8912 19.9157 19.9397 19.9595 19.9742 19.9842 19.9908 19.9948 19.9972 19.9985 19.9992 19.9996 19.9998 19.9999 20 20 20 20 20 20 20 20 20 19.9999 19.9999 19.9998 19.9995 19.9991 19.9983 19.9969 19.9945 19.9907 19.9849 19.9768 19.9665 19.955 19.9457 19.9451 19.9646 20.021 20.1361 20.3325 20.6236 20.998 
20.9178 20.4587 20.1608 19.9928 19.9156 19.8939 19.9013 19.9204 19.9415 19.9598 19.9739 19.9838 19.9904 19.9945 19.997 19.9984 19.9992 19.9996 19.9998 19.9999 20 20 20 20 20 20 20 20 20 19.9999 19.9999 19.9998 19.9995 19.9991 19.9983 19.9968 19.9944 19.9904 19.9842 19.9752 19.9633 19.9492 19.9356 19.9286 19.9393 19.9852 20.0902 20.2817 20.5825 20.9956 
20.9686 20.5271 20.224 20.042 19.9498 19.9156 19.9139 19.9271 19.9447 19.9611 19.9742 19.9838 19.9902 19.9944 19.9969 19.9983 19.9991 19.9996 19.9998 19.9999 20 20 20 20 20 20 20 20 20 20 19.9999 19.9998 19.9996 19.9991 19.9983 19.9969 19.9944 19.9903 19.9838 19.9742 19.9611 19.9447 19.9271 19.9139 19.9156 19.9498 20.042 20.224 20.5271 20.9686 
20.9956 20.5825 20.2817 20.0902 19.9852 19.9393 19.9286 19.9356 19.9492 19.9633 19.9752 19.9842 19.9903 19.9944 19.9968 19.9983 19.9991 19.9995 19.9998 19.9999 19.9999 20 20 20 20 20 20 20 20 20 19.9999 19.9998 19.9996 19.9992 19.9984 19.997 19.9945 19.9904 19.9838 19.9739 19.9598 19.9415 19.9204 19.9013 19.8939 19.9156 19.9928 20.1608 20.4587 20.9178 
20.998 20.6236 20.3325 20.1361 20.021 19.9646 19.9451 19.9457 19.955 19.9665 19.9768 19.9849 19.9907 19.9945 19.9969 19.9983 19.9991 19.9995 19.9998 19.9999 19.9999 20 20 20 20 20 20 20 20 20 19.9999 19.9998 19.9996 19.9992 19.9985 19.9972 19.9948 19.9908 19.9842 19.9742 19.9595 19.9398 19.9157 19.8912 19.8749 19.8835 19.9438 20.0936 20.3789 20.8443 
20.9759 20.6494 20.3751 20.1787 20.0563 19.9907 19.9629 19.9571 19.9619 19.9704 19.979 19.9861 19.9912 19.9948 19.997 19.9983 19.9991 19.9995 19.9998 19.9999 19.9999 20 20 20 20 20 20 20 20 20 19.9999 19.9999 19.9997 19.9993 19.9987 19.9974 19.9952 19.9914 19.9851 19.9751 19.9602 19.9395 19.9131 19.8837 19.8589 19.8543 19.8961 20.0241 20.2899 20.7501 
20.9298 20.6591 20.4084 20.2169 20.0901 20.017 19.9816 19.9695 19.9697 19.9751 19.9817 19.9875 19.992 19.9951 19.9972 19.9984 19.9991 19.9995 19.9997 19.9998 19.9999 19.9999 20 20 20 20 20 20 20 20 20 19.9999 19.9998 19.9995 19.9989 19.9978 19.9958 19.9922 19.9863 19.9767 19.962 19.9408 19.9126 19.8791 19.8465 19.8287 19.851 19.954 20.1937 20.6374 
20.8607 20.6527 20.4317 20.2498 20.1218 20.0429 20.0008 19.9827 19.9783 19.9804 19.9848 19.9893 19.9929 19.9956 19.9974 19.9985 19.9991 19.9995 19.9997 19.9998 19.9999 19.9999 19.9999 19.9999 19.9999 20 20 20 20 20 20 20 19.9999 19.9996 19.9991 19.9982 19.9965 19.9933 19.9878 19.9788 19.9646 19.9435 19.9143 19.8775 19.8378 19.8073 19.8097 19.8851 20.0928 20.509 
20.7705 20.6301 20.4444 20.2765 20.1505 20.0678 20.02 19.9964 19.9874 19.9861 19.9883 19.9913 19.994 19.9961 19.9976 19.9985 19.9991 19.9994 19.9996 19.9997 19.9998 19.9998 19.9998 19.9999 19.9999 19.9999 20 20 20 20.0001 20.0001 20.0001 20 19.9998 19.9995 19.9987 19.9973 19.9946 19.9898 19.9816 19.9682 19.9477 19.9181 19.8789 19.8331 19.7906 19.773 19.819 19.9895 20.3681 
20.6613 20.5921 20.4461 20.2964 20.1754 20.0909 20.0386 20.01 19.9967 19.9922 19.9919 19.9934 19.9951 19.9966 19.9978 19.9985 19.9989 19.9992 19.9994 19.9995 19.9996 19.9996 19.9997 19.9997 19.9998 19.9999 19.9999 20 20.0001 20.0002 20.0002 20.0002 20.0003 20.0002 19.9999 19.9994 19.9983 19.9961 19.9921 19.9849 19.9727 19.9533 19.924 19.8834 19.8326 19.7792 19.7419 19.7574 19.8866 20.2181 
20.5358 20.5394 20.4368 20.309 20.196 20.1118 20.0563 20.0234 20.0061 19.9983 19.9956 19.9955 19.9962 19.997 19.9978 19.9983 19.9986 19.9988 19.999 19.9991 19.9992 19.9993 19.9994 19.9995 19.9996 19.9998 19.9999 20.0001 20.0002 20.0003 20.0005 20.0006 20.0007 20.0007 20.0006 20.0003 19.9996 19.998 19.9948 19.9888 19.9781 19.9601 19.932 19.8909 19.8363 19.7732 19.7172 19.7018 19.7864 20.0628 
20.3971 20.4735 20.4168 20.3139 20.2117 20.1299 20.0724 20.036 20.0151 20.0042 19.9992 19.9974 19.997 19.9971 19.9974 19.9977 19.9979 19.9981 19.9982 19.9984 19.9985 19.9987 19.9989 19.9992 19.9994 19.9997 19.9999 20.0002 20.0005 20.0007 20.001 20.0012 20.0014 20.0016 20.0017 20.0016 20.0013 20.0003 19.998 19.9933 19.9842 19.9682 19.9418 19.9012 19.8442 19.773 19.6995 19.6535 19.6915 19.9059 
20.2487 20.3959 20.3864 20.311 20.2221 20.1445 20.0865 20.0474 20.0233 20.0095 20.0023 19.9988 19.9972 19.9967 19.9965 19.9965 19.9966 19.9967 19.9969 19.9972 19.9974 19.9978 19.9982 19.9986 19.9991 19.9995 20 20.0005 20.001 20.0015 20.0019 20.0024 20.0027 20.0031 20.0034 20.0036 20.0036 20.0032 20.0019 19.9985 19.9913 19.9776 19.9534 19.9142 19.8561 19.7784 19.6893 19.6138 19.6042 19.7513 
20.0941 20.3084 20.3464 20.3002 20.2267 20.1552 20.098 20.0571 20.0302 20.0138 20.0044 19.9992 19.9965 19.9951 19.9945 19.9943 19.9943 19.9944 19.9947 19.9951 19.9957 19.9963 19.997 19.9978 19.9987 19.9995 20.0004 20.0013 20.0022 20.003 20.0037 20.0044 20.005 20.0056 20.0061 20.0066 20.007 20.0071 20.0066 20.0046 19.9993 19.988 19.9666 19.9297 19.8717 19.7893 19.6868 19.5836 19.5267 19.6029 
19.9372 20.2132 20.2975 20.2816 20.225 20.1613 20.106 20.0642 20.0351 20.0163 20.0048 19.998 19.9941 19.9919 19.9908 19.9904 19.9904 19.9907 19.9912 19.992 19.993 19.9942 19.9955 19.9969 19.9984 19.9999 20.0014 20.0029 20.0044 20.0057 20.0069 20.008 20.0089 20.0097 20.0105 20.0112 20.0118 20.0124 20.0126 20.0118 20.0083 19.9995 19.9811 19.9471 19.8905 19.8054 19.6918 19.5635 19.4607 19.4642 
19.7819 20.1124 20.2405 20.255 20.2165 20.1618 20.1097 20.0676 20.0369 20.016 20.0025 19.9941 19.989 19.9862 19.9847 19.9842 19.9843 19.985 19.9861 19.9875 19.9893 19.9914 19.9936 19.9961 19.9986 20.0011 20.0037 20.0061 20.0084 20.0105 20.0124 20.014 20.0153 20.0164 20.0173 20.018 20.0188 20.0196 20.0202 20.0202 20.0182 20.0117 19.9964 19.9658 19.9117 19.8258 19.7038 19.5537 19.4077 19.3387 
19.6319 20.0081 20.1763 20.2201 20.2002 20.1555 20.1074 20.0659 20.0341 20.0114 19.9961 19.9862 19.9802 19.9768 19.9751 19.9748 19.9755 19.9769 19.979 19.9817 19.9848 19.9883 19.9922 19.9962 20.0003 20.0043 20.0083 20.0121 20.0156 20.0187 20.0214 20.0236 20.0253 20.0266 20.0274 20.028 20.0284 20.0289 20.0295 20.0298 20.0287 20.0241 20.0116 19.9846 19.9339 19.8491 19.7218 19.5537 19.3686 19.2295 
19.491 19.9024 20.1054 20.1765 20.1748 20.1405 20.0972 20.0569 20.0245 20.0005 19.9838 19.9729 19.9662 19.9626 19.9614 19.9618 19.9636 19.9666 19.9705 19.9751 19.9804 19.9862 19.9923 19.9987 20.005 20.0113 20.0172 20.0228 20.0278 20.0321 20.0357 20.0384 20.0403 20.0413 20.0417 20.0415 20.0409 20.0404 20.04 20.0397 20.0387 20.0351 20.0249 20.0014 19.9549 19.8729 19.7437 19.5624 19.3439 19.1393 
19.3626 19.7969 20.0277 20.1227 20.1381 20.1142 20.0762 20.038 20.0057 19.9811 19.9638 19.9525 19.946 19.9432 19.9432 19.9455 19.9496 19.9551 19.9619 19.9697 19.9783 19.9874 19.9969 20.0064 20.0158 20.0247 20.0331 20.0407 20.0473 20.0527 20.0568 20.0596 20.0611 20.0612 20.0602 20.0581 20.0555 20.0527 20.0501 20.0478 20.0456 20.0419 20.033 20.0127 19.9708 19.8937 19.7662 19.5776 19.3329 19.0702 
19.2499 19.693 19.9428 20.0569 20.0872 20.0733 20.0411 20.006 19.9751 19.9513 19.9347 19.9246 19.9199 19.9194 19.9223 19.928 19.936 19.9458 19.9571 19.9695 19.9827 19.9964 20.0101 20.0237 20.0366 20.0486 20.0594 20.0688 20.0765 20.0823 20.0861 20.0879 20.0876 20.0853 20.0813 20.0758 20.0694 20.0626 20.056 20.0501 20.0449 20.0395 20.0309 20.0131 19.9764 19.9061 19.7847 19.5956 19.3343 19.0241 
19.1557 19.5913 19.8494 19.9763 20.0187 20.0142 19.9888 19.9583 19.9311 19.9105 19.8972 19.8908 19.8904 19.8948 19.9032 19.9148 19.929 19.9452 19.963 19.9817 20.0009 20.0201 20.0388 20.0565 20.0729 20.0875 20.0999 20.1099 20.1172 20.1216 20.123 20.1215 20.117 20.1099 20.1004 20.0891 20.0764 20.0633 20.0505 20.039 20.0291 20.0205 20.0109 19.9953 19.9643 19.9034 19.7931 19.6121 19.3458 19.002 
19.0822 19.4923 19.7461 19.8785 19.9297 19.9344 19.9176 19.8949 19.875 19.8616 19.8558 19.8573 19.8651 19.8783 19.8957 19.9164 19.9397 19.9647 19.9908 20.0171 20.043 20.0679 20.0912 20.1122 20.1304 20.1454 20.1569 20.1645 20.168 20.1674 20.1628 20.1541 20.1418 20.1262 20.1077 20.0872 20.0655 20.0435 20.0224 20.0035 19.9875 19.9746 19.9636 19.9502 19.9263 19.8781 19.7851 19.622 19.3649 19.0044 
19.0314 19.3967 19.6327 19.7628 19.8202 19.8352 19.8307 19.8211 19.8146 19.8148 19.8227 19.838 19.8597 19.8865 19.9172 19.9506 19.9856 20.0213 20.0565 20.0904 20.1221 20.1508 20.1758 20.1965 20.2124 20.223 20.2281 20.2276 20.2216 20.21 20.1934 20.172 20.1464 20.1174 20.0859 20.0527 20.019 19.9862 19.9556 19.9287 19.9067 19.8904 19.8792 19.87 19.8561 19.825 19.7566 19.6228 19.3903 19.0314 
19.0044 19.307 19.5125 19.6341 19.6973 19.7268 19.7414 19.7533 19.7692 19.7919 19.8219 19.8586 19.9005 19.9463 19.9942 20.0429 20.0908 20.1366 20.1792 20.2175 20.2504 20.2772 20.2971 20.3097 20.3147 20.312 20.3016 20.2837 20.2589 20.2277 20.1909 20.1495 20.1044 20.0569 20.0083 19.9598 19.9131 19.8696 19.8309 19.7987 19.7743 19.7589 19.7523 19.7526 19.7544 19.7472 19.7123 19.6198 19.4271 19.0822 
19.002 19.2306 19.3975 19.5092 19.5826 19.6352 19.6802 19.7257 19.7758 19.832 19.8937 19.9594 20.0274 20.0957 20.1622 20.2251 20.2827 20.3334 20.376 20.4094 20.4328 20.4455 20.4472 20.4379 20.4178 20.3875 20.3476 20.2991 20.2433 20.1815 20.1152 20.0462 19.976 19.9066 19.8396 19.7768 19.7201 19.671 19.6313 19.6023 19.5854 19.5815 19.5904 19.6109 19.6388 19.6659 19.6756 19.6381 19.4986 19.1557 
19.0241 19.1876 19.3182 19.4271 19.5228 19.6133 19.7041 19.7982 19.8959 19.9963 20.0975 20.197 20.2923 20.3808 20.4603 20.5287 20.5841 20.6252 20.651 20.6608 20.6543 20.6317 20.5935 20.5408 20.4747 20.3969 20.3094 20.2142 20.1138 20.0105 19.9071 19.8059 19.7095 19.6203 19.5406 19.4723 19.4173 19.3771 19.3528 19.3454 19.3554 19.3828 19.4269 19.4861 19.5573 19.6342 19.7048 19.7425 19.682 19.2499 
19.0702 19.2295 19.3387 19.4642 19.6029 19.7513 19.9059 20.0628 20.2181 20.3681 20.509 20.6374 20.7501 20.8443 20.9178 20.9686 20.9956 20.998 20.9759 20.9298 20.8607 20.7705 20.6613 20.5358 20.3971 20.2487 20.0941 19.9372 19.7819 19.6319 19.491 19.3626 19.2499 19.1557 19.0822 19.0314 19.0044 19.002 19.0241 19.0702 19.1393 19.2295 19.3387 19.4642 19.6029 19.7513 19.9059 20.0628 20.2181 19.3626 
