# vtk DataFile Version 3.0
Temperature distribution on a 2D grid
ASCII

DATASET STRUCTURED_POINTS
DIMENSIONS 50 50 1
ORIGIN 0.0 0.0 0.0
SPACING 0.01 0.01 1.0

POINT_DATA 2500
SCALARS temperature double
LOOKUP_TABLE default
20.509 19.3626 19.2499 19.1557 19.0822 19.0314 19.0044 19.002 19.0241 19.0702 19.1393 19.2295 19.3387 19.4642 19.6029 19.7513 19.9059 20.0628 20.2181 20.3681 20.509 20.6374 20.7501 20.8443 20.9178 20.9686 20.9956 20.998 20.9759 20.9298 20.8607 20.7705 20.6613 20.5358 20.3971 20.2487 20.0941 19.9372 19.7819 19.6319 19.491 19.3626 19.2499 19.1557 19.0822 19.0314 19.0044 19.002 19.0241 19.1393 
20.3681 19.8555 19.6309 19.5024 19.43 19.3968 19.394 19.4161 19.459 19.5191 19.5933 19.6788 19.7728 19.8726 19.9755 20.079 20.1804 20.2774 20.3675 20.4484 20.5183 20.5755 20.6185 20.6462 20.6581 20.6537 20.6333 20.5973 20.5466 20.4824 20.4064 20.3204 20.2264 20.1269 20.0243 19.921 19.8196 19.7227 19.6328 19.5524 19.4837 19.429 19.3901 19.3679 19.3619 19.369 19.3809 19.3819 19.3448 19.2295 
20.2181 20.0635 19.9166 19.8071 19.7385 19.7061 19.7034 19.724 19.7623 19.8134 19.8734 19.9388 20.0068 20.075 20.1415 20.2044 20.2621 20.3132 20.3565 20.3909 20.4157 20.4302 20.4342 20.4274 20.4101 20.3828 20.3461 20.3008 20.2482 20.1895 20.1261 20.0597 19.9917 19.924 19.858 19.7955 19.7379 19.6869 19.6439 19.6105 19.5881 19.5784 19.5823 19.6003 19.6301 19.6651 19.6907 19.6794 19.5855 19.3387 
20.0628 20.1286 20.085 20.017 19.9597 19.925 19.9137 19.9224 19.9461 19.9802 20.0202 20.063 20.1057 20.1465 20.1838 20.2164 20.2435 20.2643 20.2786 20.2858 20.286 20.2791 20.2653 20.2451 20.2188 20.1871 20.1509 20.111 20.0683 20.0241 19.9793 19.935 19.8923 19.8521 19.8156 19.7835 19.7566 19.7357 19.7218 19.7158 19.719 19.7326 19.7578 19.7949 19.8414 19.8891 19.9201 19.9006 19.7754 19.4642 
19.9059 20.1145 20.1596 20.1356 20.0937 20.0582 20.0376 20.0328 20.0407 20.0575 20.0792 20.1028 20.1258 20.1465 20.1638 20.1768 20.1853 20.189 20.1879 20.182 20.1715 20.1568 20.1383 20.1163 20.0915 20.0645 20.036 20.0066 19.9771 19.9482 19.9206 19.895 19.8719 19.852 19.8355 19.823 19.8147 19.8109 19.8123 19.8195 19.8338 19.8566 19.8897 19.9337 19.9868 20.0411 20.0778 20.061 19.9314 19.6029 
19.7513 20.0554 20.1695 20.1849 20.1597 20.126 20.0989 20.0829 20.0778 20.0806 20.0883 20.0981 20.1077 20.1156 20.1209 20.1232 20.1222 20.1179 20.1105 20.1002 20.0874 20.0724 20.0556 20.0375 20.0185 19.999 19.9797 19.9608 19.943 19.9267 19.9122 19.8999 19.8901 19.8828 19.8783 19.8766 19.8777 19.8818 19.8892 19.9006 19.9173 19.9413 19.9748 20.0195 20.0748 20.1341 20.18 20.1767 20.0638 19.7513 
19.6029 19.9718 20.1386 20.1881 20.1799 20.1508 20.1205 20.0973 20.0829 20.0761 20.0743 20.0752 20.0769 20.0777 20.0771 20.0745 20.0699 20.0632 20.0549 20.045 20.0339 20.0219 20.0094 19.9966 19.984 19.9718 19.9604 19.95 19.9409 19.9333 19.9274 19.9233 19.9211 19.9208 19.9222 19.9253 19.9299 19.9361 19.9441 19.9547 19.9694 19.9905 20.0209 20.0636 20.1194 20.184 20.2422 20.2606 20.1793 19.9059 
19.4642 19.8769 20.0845 20.1636 20.1725 20.1506 20.1205 20.0937 20.0738 20.061 20.0536 20.0496 20.0471 20.0448 20.0419 20.0381 20.0331 20.0271 20.0201 20.0126 20.0046 19.9965 19.9884 19.9806 19.9734 19.9668 19.9611 19.9565 19.953 19.9507 19.9497 19.9499 19.9514 19.954 19.9576 19.9618 19.9666 19.9719 19.9779 19.9855 19.9964 20.013 20.0392 20.0788 20.1347 20.2048 20.2773 20.322 20.2816 20.0628 
19.3387 19.7792 20.0189 20.1242 20.1504 20.1376 20.1108 20.0833 20.061 20.0451 20.0347 20.0282 20.024 20.0208 20.0177 20.0144 20.0106 20.0063 20.0016 19.9968 19.9919 19.9872 19.9827 19.9787 19.9753 19.9725 19.9704 19.9691 19.9687 19.9691 19.9704 19.9724 19.9751 19.9783 19.9819 19.9855 19.989 19.9922 19.9955 19.9996 20.0062 20.0183 20.0399 20.0763 20.1318 20.2072 20.2943 20.3672 20.3726 20.2181 
19.2295 19.6848 19.9492 20.0778 20.1214 20.1193 20.0978 20.0721 20.0495 20.0324 20.0208 20.0134 20.0088 20.0057 20.0033 20.0011 19.9988 19.9964 19.9939 19.9913 19.9889 19.9867 19.9848 19.9832 19.9821 19.9815 19.9814 19.9818 19.9827 19.9842 19.9861 19.9884 19.9911 19.9938 19.9965 19.9988 20.0006 20.0017 20.0023 20.0032 20.006 20.0138 20.0312 20.0641 20.1187 20.1984 20.299 20.3998 20.4524 20.3681 
19.1393 19.5976 19.88 20.0291 20.0896 20.0993 20.0848 20.0625 20.0411 20.0242 20.0123 20.0047 20.0002 19.9976 19.9961 19.995 19.9941 19.9932 19.9923 19.9914 19.9907 19.9901 19.9897 19.9895 19.9897 19.9901 19.9908 19.9918 19.9931 19.9947 19.9964 19.9984 20.0004 20.0023 20.0039 20.005 20.0052 20.0046 20.003 20.0013 20.0009 20.005 20.0183 20.0476 20.1004 20.1829 20.2949 20.4215 20.5206 20.509 
19.0702 19.5205 19.8143 19.9806 20.0573 20.0792 20.0726 20.0549 20.0357 20.0197 20.0081 20.0007 19.9964 19.9943 19.9934 19.9932 19.9933 19.9934 19.9936 19.9938 19.994 19.9943 19.9947 19.9952 19.9959 19.9966 19.9975 19.9986 19.9997 20.0009 20.0022 20.0036 20.0048 20.0059 20.0067 20.0068 20.006 20.0041 20.001 19.9973 19.9944 19.9952 20.0046 20.0299 20.0798 20.1632 20.2839 20.433 20.5761 20.6374 
19.0241 19.4556 19.754 19.9339 20.0253 20.0593 20.0612 20.0488 20.0325 20.0178 20.0068 19.9996 19.9956 19.9937 19.9933 19.9936 19.9942 19.995 19.9958 19.9966 19.9973 19.998 19.9987 19.9994 20.0001 20.0009 20.0016 20.0024 20.0032 20.004 20.0048 20.0056 20.0063 20.0068 20.0069 20.0064 20.005 20.0023 19.9983 19.9932 19.9882 19.9862 19.9918 20.0126 20.0586 20.1407 20.2669 20.4347 20.6178 20.7501 
19.002 19.4045 19.7004 19.89 19.9941 20.0396 20.0502 20.0434 20.0304 20.0174 20.0072 20.0002 19.9963 19.9945 19.9942 19.9947 19.9957 19.9967 19.9978 19.9988 19.9997 20.0005 20.0013 20.002 20.0026 20.0031 20.0037 20.0041 20.0046 20.005 20.0054 20.0058 20.0061 20.0062 20.006 20.0052 20.0035 20.0005 19.9959 19.9899 19.9834 19.9787 19.9806 19.9965 20.0373 20.116 20.2445 20.4264 20.6447 20.8443 
19.0044 19.3683 19.6548 19.8494 19.9639 20.02 20.039 20.0381 20.0287 20.0176 20.0082 20.0015 19.9976 19.9958 19.9954 19.996 19.9969 19.9981 19.9992 20.0002 20.0012 20.0019 20.0026 20.0032 20.0036 20.004 20.0043 20.0045 20.0047 20.0048 20.0049 20.0051 20.0051 20.0051 20.0048 20.004 20.0022 19.9992 19.9944 19.9878 19.98 19.973 19.9711 19.9818 20.0164 20.0896 20.2169 20.4082 20.656 20.9178 
19.0314 19.3478 19.6179 19.813 19.9352 20.0004 20.0275 20.0324 20.0267 20.0178 20.0093 20.003 19.999 19.997 19.9965 19.9969 19.9978 19.9989 19.9999 20.0009 20.0018 20.0025 20.003 20.0035 20.0038 20.004 20.0041 20.0041 20.0041 20.0041 20.004 20.004 20.004 20.0039 20.0037 20.003 20.0014 19.9985 19.9938 19.9868 19.978 19.9689 19.9633 19.9685 19.996 20.0618 20.1846 20.3805 20.6514 20.9686 
19.0822 19.3434 19.5906 19.7815 19.9083 19.9811 20.0154 20.026 20.0242 20.0175 20.0101 20.0042 20.0002 19.998 19.9973 19.9975 19.9982 19.9992 20.0001 20.001 20.0018 20.0024 20.0029 20.0032 20.0034 20.0035 20.0035 20.0034 20.0033 20.0032 20.0031 20.003 20.003 20.003 20.0028 20.0023 20.001 19.9984 19.9938 19.9868 19.9772 19.9662 19.9571 19.9566 19.9762 20.0329 20.1482 20.3436 20.6309 20.9956 
19.1557 19.3553 19.5735 19.7553 19.8837 19.9623 20.003 20.019 20.021 20.0167 20.0105 20.005 20.0011 19.9988 19.9979 19.9978 19.9984 19.9991 20 20.0008 20.0014 20.002 20.0024 20.0026 20.0028 20.0028 20.0027 20.0026 20.0024 20.0023 20.0021 20.0021 20.0021 20.0022 20.0022 20.0019 20.0009 19.9987 19.9944 19.9874 19.9773 19.9647 19.9522 19.9461 19.9573 20.0035 20.1083 20.2985 20.595 20.998 
19.2499 19.383 19.5668 19.7352 19.8619 19.9443 19.9905 20.0115 20.0172 20.0153 20.0105 20.0056 20.0018 19.9994 19.9982 19.998 19.9983 19.9989 19.9996 20.0003 20.0009 20.0014 20.0018 20.002 20.0021 20.0021 20.002 20.0018 20.0017 20.0015 20.0014 20.0013 20.0014 20.0015 20.0017 20.0017 20.001 19.9992 19.9954 19.9886 19.9782 19.9642 19.9487 19.937 19.9396 19.9741 20.0659 20.246 20.5444 20.9759 
19.3626 19.4259 19.5708 19.7215 19.8435 19.9277 19.9781 20.0035 20.0128 20.0133 20.01 20.0058 20.0022 19.9998 19.9985 19.998 19.9982 19.9986 19.9992 19.9999 20.0004 20.0008 20.0011 20.0013 20.0014 20.0014 20.0014 20.0012 20.001 20.0009 20.0008 20.0007 20.0008 20.0011 20.0013 20.0015 20.0012 19.9999 19.9965 19.9901 19.9796 19.9647 19.9465 19.9295 19.9234 19.9454 20.0218 20.1875 20.4804 20.9298 
19.491 19.4829 19.5853 19.7146 19.8288 19.9127 19.9661 19.9953 20.0079 20.0109 20.0091 20.0058 20.0025 20.0001 19.9986 19.998 19.998 19.9984 19.9989 19.9994 19.9999 20.0003 20.0006 20.0008 20.0009 20.0009 20.0008 20.0007 20.0005 20.0004 20.0003 20.0002 20.0003 20.0006 20.001 20.0014 20.0015 20.0005 19.9977 19.9918 19.9816 19.966 19.9456 19.9237 19.9091 19.918 19.9771 20.1243 20.4046 20.8607 
19.6319 19.5526 19.61 19.7147 19.8183 19.8998 19.9549 19.9871 20.0028 20.0081 20.0079 20.0055 20.0027 20.0003 19.9988 19.9981 19.9979 19.9982 19.9986 19.999 19.9995 19.9999 20.0002 20.0004 20.0005 20.0005 20.0004 20.0003 20.0001 20 19.9998 19.9998 19.9999 20.0002 20.0007 20.0013 20.0016 20.0012 19.999 19.9937 19.9839 19.968 19.9459 19.9198 19.8969 19.8925 19.933 20.0581 20.3188 20.7705 
19.7819 19.6334 19.6442 19.7218 19.8122 19.8893 19.9447 19.9792 19.9975 20.0051 20.0065 20.005 20.0027 20.0006 19.999 19.9982 19.9979 19.998 19.9984 19.9988 19.9992 19.9995 19.9998 20 20.0001 20.0002 20.0001 20 19.9998 19.9997 19.9995 19.9995 19.9996 19.9999 20.0004 20.0011 20.0017 20.0017 20.0001 19.9957 19.9865 19.9708 19.9475 19.9177 19.8871 19.8696 19.8905 19.9904 20.2252 20.6613 
19.9372 19.7231 19.6872 19.7357 19.8107 19.8815 19.9358 19.9717 19.9922 20.0019 20.0049 20.0044 20.0026 20.0008 19.9993 19.9984 19.998 19.998 19.9983 19.9986 19.999 19.9993 19.9996 19.9998 19.9999 19.9999 19.9999 19.9998 19.9996 19.9994 19.9993 19.9992 19.9992 19.9995 20.0001 20.0009 20.0018 20.0022 20.0013 19.9977 19.9894 19.9742 19.9503 19.9175 19.8801 19.8498 19.8506 19.9229 20.126 20.5358 
20.0941 19.8197 19.7379 19.7561 19.8138 19.8765 19.9284 19.9649 19.9871 19.9985 20.003 20.0037 20.0025 20.0009 19.9995 19.9986 19.9982 19.9981 19.9982 19.9985 19.9989 19.9992 19.9995 19.9997 19.9998 19.9998 19.9998 19.9996 19.9995 19.9993 19.9991 19.9989 19.9989 19.9992 19.9998 20.0006 20.0017 20.0026 20.0023 19.9997 19.9925 19.9782 19.9542 19.9194 19.876 19.8338 19.8144 19.8572 20.0236 20.3971 
20.2487 19.9206 19.795 19.7825 19.8215 19.8746 19.9228 19.9588 19.9822 19.9952 20.0011 20.0028 20.0023 20.001 19.9998 19.9989 19.9984 19.9982 19.9983 19.9986 19.9989 19.9992 19.9994 19.9996 19.9997 19.9998 19.9997 19.9996 19.9994 19.9992 19.999 19.9988 19.9987 19.9989 19.9994 20.0004 20.0016 20.0029 20.0033 20.0017 19.9957 19.9827 19.9593 19.9231 19.8749 19.8217 19.7827 19.7951 19.9207 20.2487 
20.3971 20.0236 19.8571 19.8142 19.8335 19.8757 19.919 19.9538 19.9777 19.9919 19.9991 20.0018 20.002 20.0011 20 19.9992 19.9986 19.9984 19.9985 19.9987 19.9989 19.9992 19.9994 19.9996 19.9998 19.9998 19.9998 19.9997 19.9995 19.9992 19.9989 19.9987 19.9986 19.9987 19.9992 20.0001 20.0015 20.0031 20.0042 20.0036 19.999 19.9875 19.9653 19.9288 19.8768 19.8141 19.7563 19.738 19.8197 20.0941 
20.5358 20.1259 19.9227 19.8504 19.8495 19.8797 19.9171 19.9498 19.9737 19.9888 19.997 20.0006 20.0015 20.0011 20.0003 19.9995 19.9989 19.9987 19.9987 19.9988 19.9991 19.9993 19.9996 19.9998 19.9999 20 19.9999 19.9998 19.9996 19.9993 19.999 19.9987 19.9985 19.9985 19.9989 19.9998 20.0013 20.0032 20.0049 20.0054 20.0023 19.9926 19.9721 19.9361 19.8818 19.8109 19.7359 19.6873 19.7232 19.9372 
20.6613 20.2251 19.9902 19.8902 19.8692 19.8867 19.9172 19.9469 19.9702 19.9858 19.995 19.9994 20.001 20.001 20.0004 19.9998 19.9992 19.999 19.9989 19.9991 19.9993 19.9995 19.9998 20 20.0001 20.0002 20.0002 20.0001 19.9999 19.9996 19.9992 19.9988 19.9986 19.9985 19.9988 19.9996 20.0011 20.0032 20.0055 20.007 20.0055 19.9979 19.9795 19.945 19.8896 19.8124 19.722 19.6443 19.6334 19.7819 
20.7705 20.3187 20.0579 19.9327 19.8921 19.8964 19.9192 19.9452 19.9673 19.9831 19.9929 19.9982 20.0004 20.0008 20.0005 20 19.9996 19.9993 19.9993 19.9994 19.9996 19.9998 20.0001 20.0003 20.0005 20.0006 20.0005 20.0004 20.0002 19.9999 19.9995 19.9991 19.9987 19.9985 19.9987 19.9994 20.0009 20.0032 20.006 20.0084 20.0085 20.0032 19.9874 19.9551 19.9 19.8185 19.7149 19.61 19.5527 19.6319 
20.8607 20.4045 20.1241 19.9768 19.9175 19.9085 19.9231 19.9448 19.9652 19.9807 19.991 19.9969 19.9997 20.0006 20.0006 20.0003 19.9999 19.9997 19.9997 19.9998 20 20.0003 20.0005 20.0008 20.0009 20.001 20.001 20.0009 20.0007 20.0003 19.9999 19.9994 19.9989 19.9986 19.9986 19.9992 20.0006 20.003 20.0062 20.0095 20.0113 20.0083 19.9956 19.9663 19.9129 19.829 19.7147 19.5854 19.4829 19.491 
20.9298 20.4803 20.1872 20.0214 19.9449 19.9228 19.9288 19.9457 19.9638 19.9787 19.9892 19.9956 19.999 20.0004 20.0007 20.0006 20.0004 20.0002 20.0002 20.0003 20.0006 20.0008 20.0011 20.0013 20.0015 20.0016 20.0016 20.0015 20.0012 20.0008 20.0003 19.9998 19.9992 19.9987 19.9985 19.999 20.0003 20.0027 20.0062 20.0103 20.0136 20.0131 20.0037 19.9783 19.9278 19.8436 19.7216 19.5708 19.4259 19.3626 
20.9759 20.5443 20.2457 20.0654 19.9736 19.939 19.9362 19.9479 19.9633 19.9773 19.9877 19.9945 19.9983 20.0002 20.0009 20.001 20.0009 20.0009 20.0009 20.001 20.0013 20.0015 20.0018 20.002 20.0022 20.0023 20.0022 20.0021 20.0018 20.0013 20.0008 20.0001 19.9994 19.9987 19.9984 19.9986 19.9997 20.0021 20.0059 20.0107 20.0155 20.0174 20.0116 19.9906 19.9444 19.862 19.7352 19.5669 19.383 19.2499 
20.998 20.5948 20.2982 20.1079 20.003 19.9567 19.9454 19.9515 19.9639 19.9765 19.9866 19.9936 19.9979 20.0002 20.0013 20.0016 20.0017 20.0017 20.0018 20.0019 20.0021 20.0024 20.0026 20.0028 20.0029 20.0029 20.0028 20.0026 20.0022 20.0017 20.001 20.0003 19.9994 19.9986 19.998 19.998 19.999 20.0012 20.0051 20.0106 20.0167 20.0211 20.0191 20.0031 19.9623 19.8837 19.7554 19.5735 19.3553 19.1557 
20.9956 20.6308 20.3434 20.1479 20.0326 19.9758 19.9561 19.9565 19.9656 19.9766 19.9862 19.9933 19.9979 20.0006 20.0019 20.0025 20.0027 20.0028 20.0028 20.003 20.0031 20.0033 20.0034 20.0035 20.0035 20.0034 20.0032 20.0029 20.0024 20.0018 20.001 20.0001 19.9991 19.9981 19.9974 19.9972 19.9979 20 20.004 20.01 20.0174 20.0242 20.0261 20.0155 19.9812 19.9084 19.7816 19.5907 19.3435 19.0822 
20.9686 20.6514 20.3805 20.1846 20.0618 19.996 19.9685 19.9633 19.9688 19.9779 19.9868 19.9937 19.9985 20.0014 20.003 20.0037 20.004 20.004 20.004 20.004 20.004 20.004 20.0039 20.0038 20.0037 20.0034 20.0031 20.0026 20.002 20.0012 20.0003 19.9993 19.9983 19.9972 19.9963 19.996 19.9965 19.9986 20.0026 20.0091 20.0177 20.0268 20.0325 20.0277 20.0007 19.9355 19.8133 19.6182 19.3479 19.0314 
20.9178 20.6562 20.4086 20.2175 20.0903 20.0172 19.9826 19.9719 19.9738 19.9807 19.9885 19.9951 19.9998 20.0028 20.0044 20.0051 20.0053 20.0052 20.005 20.0047 20.0045 20.0042 20.0038 20.0035 20.0031 20.0026 20.002 20.0014 20.0006 19.9998 19.9989 19.9979 19.9968 19.9957 19.9949 19.9945 19.995 19.997 20.0012 20.0081 20.0178 20.0291 20.0386 20.0397 20.0207 19.9647 19.8501 19.6553 19.3685 19.0044 
20.8443 20.6452 20.4274 20.2459 20.1177 20.0393 19.9986 19.9826 19.9807 19.9852 19.9916 19.9974 20.0018 20.0045 20.006 20.0065 20.0064 20.0059 20.0053 20.0046 20.0039 20.0032 20.0025 20.0017 20.001 20.0003 19.9996 19.9988 19.9981 19.9973 19.9965 19.9956 19.9947 19.9939 19.9933 19.9931 19.9937 19.9959 20.0002 20.0076 20.0183 20.0316 20.0449 20.0518 20.0413 19.9957 19.8913 19.7014 19.405 19.002 
20.7501 20.6187 20.4365 20.2695 20.1438 20.0621 20.0163 19.9954 19.9896 19.9914 19.9959 20.0005 20.004 20.0061 20.007 20.0069 20.0062 20.0052 20.0039 20.0026 20.0013 20.0001 19.999 19.9979 19.9969 19.9961 19.9953 19.9947 19.9941 19.9936 19.9932 19.9929 19.9925 19.9923 19.9922 19.9925 19.9936 19.9961 20.0008 20.0086 20.0202 20.0353 20.0519 20.0646 20.0625 20.0282 19.9363 19.7557 19.4565 19.0241 
20.6374 20.5775 20.4358 20.2878 20.1679 20.085 20.0352 20.0098 19.9999 19.9985 20.0006 20.0034 20.0055 20.0065 20.0063 20.0052 20.0036 20.0016 19.9995 19.9975 19.9956 19.9939 19.9924 19.9912 19.9902 19.9895 19.9891 19.989 19.9891 19.9894 19.9899 19.9905 19.9912 19.992 19.9929 19.9941 19.9959 19.999 20.0042 20.0124 20.0247 20.0413 20.0607 20.0784 20.0846 20.062 19.9844 19.8169 19.5218 19.0702 
20.509 20.5225 20.4251 20.2999 20.1889 20.1069 20.0542 20.0244 20.0102 20.005 20.0039 20.0042 20.0042 20.0033 20.0016 19.9991 19.9963 19.9933 19.9903 19.9877 19.9854 19.9835 19.9821 19.9812 19.9808 19.981 19.9816 19.9827 19.9842 19.9861 19.9882 19.9904 19.9928 19.9952 19.9975 20 20.0029 20.0067 20.0123 20.0208 20.0333 20.0506 20.0719 20.0937 20.1073 20.0963 20.0341 19.8833 19.5992 19.1393 
20.3681 20.4544 20.4035 20.3042 20.2046 20.1251 20.0702 20.0363 20.0174 20.0076 20.0027 19.9995 19.9967 19.9935 19.9898 19.9858 19.9817 19.9779 19.9745 19.9717 19.9697 19.9685 19.9681 19.9686 19.9699 19.972 19.9748 19.9782 19.9822 19.9866 19.9912 19.9959 20.0006 20.005 20.0092 20.0131 20.017 20.0214 20.027 20.0351 20.0469 20.0637 20.0856 20.1099 20.1294 20.1292 20.0831 19.9523 19.6862 19.2295 
20.2181 20.3736 20.3693 20.2972 20.2105 20.1349 20.0783 20.0402 20.0161 20.0013 19.9917 19.9846 19.9786 19.9728 19.9673 19.9621 19.9575 19.9536 19.9509 19.9493 19.949 19.9501 19.9524 19.956 19.9607 19.9664 19.973 19.9802 19.9879 19.9959 20.004 20.0118 20.0192 20.0259 20.0317 20.0367 20.041 20.045 20.0496 20.0558 20.0654 20.0798 20.0999 20.1244 20.1477 20.1567 20.127 20.0194 19.7789 19.3387 
20.0628 20.2798 20.3188 20.2731 20.1997 20.1282 20.0703 20.028 19.9986 19.9784 19.964 19.9531 19.9442 19.9368 19.9305 19.9256 19.9222 19.9205 19.9207 19.9228 19.9269 19.9328 19.9404 19.9495 19.96 19.9714 19.9836 19.9963 20.009 20.0214 20.0333 20.0442 20.0539 20.0621 20.0686 20.0732 20.0761 20.0777 20.0789 20.0808 20.0854 20.0944 20.1096 20.1311 20.1551 20.1712 20.1579 20.0772 19.8717 19.4642 
19.9059 20.171 20.2456 20.2225 20.1609 20.0934 20.0345 19.9884 19.9543 19.9297 19.9117 19.8986 19.8889 19.8822 19.8782 19.8769 19.8783 19.8826 19.8897 19.8995 19.9118 19.9263 19.9426 19.9605 19.9793 19.9987 20.0182 20.0372 20.0553 20.072 20.0869 20.0996 20.1097 20.1169 20.1209 20.1219 20.1199 20.1154 20.1093 20.103 20.0984 20.098 20.1042 20.1184 20.1393 20.1599 20.1627 20.1137 19.9557 19.6029 
19.7513 20.0428 20.1394 20.1316 20.0788 20.0149 19.956 19.9083 19.8722 19.8463 19.8285 19.8174 19.8118 19.8111 19.815 19.8232 19.8355 19.8518 19.8716 19.8946 19.9202 19.9478 19.9767 20.0063 20.0357 20.0643 20.0913 20.1161 20.138 20.1565 20.1711 20.1815 20.1872 20.1882 20.1843 20.1757 20.1628 20.1462 20.127 20.1069 20.088 20.0732 20.0655 20.0679 20.0815 20.1032 20.1218 20.1106 20.0174 19.7513 
19.6029 19.8876 19.9852 19.982 19.9345 19.8751 19.82 19.7758 19.7441 19.7242 19.7146 19.714 19.7213 19.7358 19.7568 19.7836 19.8156 19.852 19.892 19.9347 19.979 20.0238 20.0681 20.1107 20.1507 20.1869 20.2186 20.2449 20.2651 20.2789 20.2857 20.2854 20.278 20.2637 20.2426 20.2155 20.183 20.1462 20.1066 20.0662 20.0274 19.9933 19.9677 19.9543 19.9568 19.9763 20.0094 20.0415 20.035 19.9059 
19.4642 19.6921 19.7628 19.7527 19.7093 19.6595 19.6171 19.5877 19.573 19.5725 19.585 19.6091 19.6435 19.6869 19.7381 19.7956 19.858 19.9239 19.9916 20.0595 20.1259 20.1893 20.248 20.3007 20.3459 20.3827 20.41 20.4273 20.434 20.4301 20.4155 20.3907 20.3561 20.3127 20.2615 20.2037 20.1409 20.0748 20.0074 19.941 19.8785 19.8231 19.7785 19.7491 19.7394 19.7544 19.7983 19.873 19.9719 20.0628 
19.3387 19.4339 19.449 19.426 19.3935 19.3676 19.3559 19.3617 19.3854 19.426 19.4821 19.5516 19.6326 19.7227 19.8196 19.921 20.0243 20.1269 20.2264 20.3203 20.4063 20.4823 20.5465 20.5972 20.6332 20.6536 20.658 20.6462 20.6184 20.5754 20.5182 20.4483 20.3673 20.2771 20.1801 20.0786 19.9752 19.8724 19.7731 19.68 19.596 19.5242 19.4678 19.4302 19.4153 19.428 19.4759 19.5743 19.7599 20.2181 
19.2295 19.0702 19.0241 19.002 19.0044 19.0314 19.0822 19.1557 19.2499 19.3626 19.491 19.6319 19.7819 19.9372 20.0941 20.2487 20.3971 20.5358 20.6613 20.7705 20.8607 20.9298 20.9759 20.998 20.9956 20.9686 20.9178 20.8443 20.7501 20.6374 20.509 20.3681 20.2181 20.0628 19.9059 19.7513 19.6029 19.4642 19.3387 19.2295 19.1393 19.0702 19.0241 19.002 19.0044 19.0314 19.0822 19.1557 19.2499 20.3681 
