# vtk DataFile Version 3.0
Temperature distribution on a 2D grid
ASCII

DATASET STRUCTURED_POINTS
DIMENSIONS 50 50 1
ORIGIN 0.0 0.0 0.0
SPACING 0.01 0.01 1.0

POINT_DATA 2500
SCALARS temperature double
LOOKUP_TABLE default
19.0952 20.8271 20.729 20.6129 20.4818 20.3387 20.1874 20.0314 19.8747 19.721 19.5742 19.4379 19.3155 19.2098 19.1237 19.0591 19.0177 19.0005 19.0079 19.0397 19.0952 19.1729 19.271 19.3871 19.5182 19.6613 19.8126 19.9686 20.1253 20.279 20.4258 20.5621 20.6845 20.7902 20.8763 20.9409 20.9823 20.9995 20.9921 20.9603 20.9048 20.8271 20.729 20.6129 20.4818 20.3387 20.1874 20.0314 19.8747 19.5742 
19.0397 19.874 20.0835 20.1125 20.065 19.9835 19.8878 19.7888 19.6929 19.6045 19.5264 19.4608 19.4092 19.3728 19.3523 19.348 19.36 19.388 19.431 19.4881 19.5579 19.6385 19.728 19.8243 19.9249 20.0273 20.1291 20.2276 20.3206 20.4057 20.4808 20.5441 20.594 20.6294 20.6494 20.6535 20.6418 20.6145 20.5725 20.5168 20.4485 20.3689 20.2789 20.1789 20.0688 19.948 19.8164 19.6777 19.5446 19.4379 
19.0079 19.5084 19.7527 19.8488 19.8625 19.8337 19.7857 19.7326 19.6822 19.6392 19.6062 19.5843 19.5741 19.5755 19.5883 19.6118 19.6453 19.6877 19.738 19.7948 19.8567 19.9222 19.9896 20.0573 20.1235 20.1868 20.2454 20.298 20.3432 20.38 20.4075 20.425 20.4321 20.4287 20.4149 20.3911 20.3582 20.3171 20.2689 20.2148 20.1559 20.0927 20.0248 19.9505 19.8666 19.7686 19.6526 19.5206 19.3907 19.3155 
19.0005 19.3653 19.6038 19.7342 19.79 19.8009 19.7887 19.768 19.7476 19.7324 19.725 19.7263 19.7361 19.7541 19.7792 19.8107 19.8473 19.8881 19.9318 19.9773 20.0235 20.0691 20.113 20.1542 20.1916 20.2242 20.2514 20.2723 20.2866 20.2938 20.2938 20.2866 20.2725 20.2519 20.2253 20.1936 20.1577 20.1189 20.0783 20.0369 19.9954 19.9536 19.9099 19.8607 19.8 19.7196 19.6116 19.4739 19.3224 19.2098 
19.0177 19.3145 19.5454 19.6966 19.7815 19.821 19.834 19.8345 19.8319 19.8317 19.8364 19.8472 19.8637 19.8855 19.9114 19.9405 19.9717 20.0041 20.0366 20.0684 20.0986 20.1263 20.1511 20.1721 20.1888 20.2009 20.2081 20.2102 20.2071 20.1989 20.1859 20.1683 20.1467 20.1218 20.0941 20.0648 20.0346 20.0048 19.9763 19.95 19.9262 19.9042 19.8814 19.8528 19.8101 19.742 19.6362 19.4857 19.2999 19.1237 
19.0591 19.3064 19.5278 19.691 19.7957 19.8552 19.8853 19.8991 19.9064 19.9128 19.9217 19.9342 19.9503 19.9695 19.9909 20.0136 20.0368 20.0594 20.081 20.1007 20.118 20.1324 20.1437 20.1514 20.1554 20.1555 20.1519 20.1445 20.1336 20.1194 20.1023 20.0827 20.0613 20.0386 20.0154 19.9924 19.9706 19.9509 19.9343 19.9214 19.9122 19.9058 19.899 19.8859 19.8565 19.7971 19.6915 19.5269 19.3048 19.0591 
19.1237 19.3214 19.5273 19.6943 19.8111 19.884 19.9255 19.9478 19.9602 19.969 19.978 19.9886 20.0012 20.0156 20.0311 20.0469 20.0622 20.0766 20.0893 20.1001 20.1085 20.1142 20.1172 20.1173 20.1146 20.109 20.1008 20.09 20.0771 20.0623 20.046 20.0286 20.0107 19.9928 19.9756 19.9596 19.9458 19.9349 19.9277 19.9249 19.9264 19.9311 19.9358 19.934 19.9148 19.8627 19.758 19.5822 19.3283 19.0177 
19.2098 19.3519 19.5343 19.6973 19.8195 19.9007 19.9498 19.9775 19.9928 20.0022 20.0098 20.0175 20.0262 20.0357 20.0457 20.0556 20.0648 20.073 20.0796 20.0845 20.0874 20.0882 20.0869 20.0835 20.078 20.0706 20.0614 20.0508 20.0389 20.0261 20.0127 19.999 19.9856 19.9727 19.9611 19.9511 19.9435 19.9391 19.9386 19.9426 19.9511 19.9633 19.9759 19.9825 19.9719 19.9271 19.8258 19.6442 19.3665 19.0005 
19.3155 19.3952 19.5463 19.698 19.8198 19.9053 19.9594 19.9909 20.0082 20.0178 20.024 20.0292 20.0345 20.04 20.0458 20.0513 20.0563 20.0603 20.0632 20.0647 20.0646 20.0631 20.06 20.0555 20.0496 20.0425 20.0344 20.0254 20.0158 20.0058 19.9958 19.9859 19.9765 19.968 19.9607 19.9552 19.952 19.9519 19.9555 19.9636 19.9764 19.9932 20.0113 20.0245 20.0216 19.9852 19.8908 19.7097 19.4175 19.0079 
19.4379 19.4504 19.5635 19.6977 19.8144 19.9008 19.958 19.9924 20.0115 20.0215 20.027 20.0305 20.0334 20.0363 20.0391 20.0418 20.0441 20.0456 20.0464 20.0461 20.0449 20.0425 20.0392 20.0349 20.0298 20.0239 20.0174 20.0106 20.0034 19.9963 19.9892 19.9825 19.9763 19.971 19.9669 19.9644 19.9639 19.9662 19.9721 19.9824 19.9974 20.017 20.0389 20.0575 20.0624 20.0356 19.9515 19.7773 19.4801 19.0397 
19.5742 19.5169 19.5871 19.6989 19.8063 19.8909 19.9495 19.9862 20.0072 20.0182 20.0237 20.0264 20.028 20.0293 20.0304 20.0314 20.0321 20.0324 20.0321 20.0312 20.0296 20.0273 20.0244 20.0209 20.0169 20.0124 20.0077 20.0028 19.9978 19.993 19.9883 19.9839 19.9801 19.977 19.9749 19.9742 19.9752 19.9788 19.9856 19.9966 20.0126 20.0337 20.0583 20.0817 20.0942 20.0785 20.0079 19.8463 19.5535 19.0952 
19.721 19.5936 19.618 19.7034 19.7983 19.8787 19.9374 19.9759 19.9988 20.0112 20.0173 20.0201 20.0213 20.0218 20.022 20.0222 20.0221 20.0218 20.0211 20.0201 20.0186 20.0168 20.0145 20.0119 20.009 20.0059 20.0027 19.9993 19.9961 19.9929 19.9899 19.9872 19.985 19.9833 19.9824 19.9826 19.9843 19.9882 19.9951 20.006 20.0221 20.0438 20.0703 20.098 20.1182 20.1145 20.0599 19.9162 19.6363 19.1729 
19.8747 19.6795 19.6565 19.7129 19.7925 19.8667 19.9242 19.9639 19.9886 20.0027 20.01 20.0134 20.0147 20.0151 20.0151 20.0149 20.0145 20.0141 20.0134 20.0125 20.0113 20.0099 20.0083 20.0065 20.0045 20.0025 20.0003 19.9982 19.9961 19.9941 19.9923 19.9907 19.9894 19.9886 19.9883 19.9889 19.9907 19.9944 20.0008 20.0112 20.0267 20.0484 20.0762 20.1077 20.1354 20.1442 20.1077 19.9862 19.727 19.271 
20.0314 19.7727 19.7024 19.7281 19.7904 19.8565 19.9117 19.9518 19.9781 19.994 20.0027 20.0071 20.009 20.0096 20.0097 20.0095 20.0092 20.0087 20.0082 20.0075 20.0066 20.0057 20.0046 20.0034 20.0021 20.0008 19.9995 19.9981 19.9969 19.9957 19.9946 19.9937 19.993 19.9925 19.9925 19.9931 19.9947 19.9979 20.0036 20.013 20.0275 20.0487 20.0773 20.1119 20.1466 20.1681 20.1511 20.0553 19.8238 19.3871 
20.1874 19.8712 19.7552 19.7494 19.7928 19.8493 19.9008 19.9406 19.9681 19.9857 19.9959 20.0015 20.0042 20.0054 20.0058 20.0057 20.0055 20.0052 20.0048 20.0043 20.0038 20.0031 20.0024 20.0017 20.0009 20.0001 19.9993 19.9985 19.9977 19.997 19.9964 19.9959 19.9955 19.9952 19.9952 19.9957 19.9969 19.9995 20.0042 20.0123 20.0255 20.0458 20.0745 20.1115 20.1526 20.1865 20.1897 20.1223 19.9246 19.5182 
20.3387 19.9728 19.8138 19.7766 19.7999 19.8455 19.8922 19.9309 19.9592 19.9781 19.9899 19.9966 20.0003 20.0021 20.0029 20.0031 20.0031 20.003 20.0027 20.0024 20.0021 20.0017 20.0013 20.0008 20.0003 19.9999 19.9994 19.9989 19.9985 19.9981 19.9977 19.9974 19.9971 19.9969 19.9969 19.9971 19.9978 19.9996 20.0031 20.0099 20.0215 20.0404 20.0686 20.1073 20.1539 20.1995 20.223 20.1858 20.027 19.6613 
20.4818 20.075 19.8769 19.8091 19.812 19.8455 19.8863 19.923 19.9515 19.9715 19.9845 19.9925 19.9971 19.9996 20.0008 20.0014 20.0016 20.0016 20.0015 20.0013 20.0011 20.0009 20.0006 20.0004 20.0001 19.9998 19.9996 19.9993 19.999 19.9988 19.9986 19.9983 19.9981 19.9979 19.9977 19.9976 19.9978 19.9987 20.0011 20.0063 20.0162 20.0332 20.0603 20.0997 20.1509 20.2071 20.2504 20.2446 20.1286 19.8126 
20.6129 20.1753 19.943 19.8463 19.8286 19.8493 19.8833 19.9173 19.9452 19.9659 19.98 19.989 19.9944 19.9976 19.9993 20.0001 20.0005 20.0007 20.0007 20.0007 20.0006 20.0004 20.0003 20.0002 20 19.9999 19.9997 19.9996 19.9994 19.9993 19.9991 19.9989 19.9987 19.9984 19.998 19.9976 19.9972 19.9973 19.9985 20.0021 20.0099 20.0248 20.0502 20.0894 20.1438 20.2094 20.2715 20.2971 20.227 19.9686 
20.729 20.2713 20.0104 19.8874 19.8495 19.8569 19.8833 19.9136 19.9405 19.9613 19.9762 19.986 19.9922 19.996 19.9981 19.9993 19.9999 20.0001 20.0003 20.0003 20.0003 20.0002 20.0001 20.0001 20 19.9999 19.9998 19.9997 19.9996 19.9995 19.9994 19.9992 19.999 19.9986 19.998 19.9973 19.9964 19.9957 19.9956 19.9975 20.0031 20.0154 20.0385 20.0767 20.1331 20.2064 20.2858 20.3423 20.3198 20.1253 
20.8271 20.3606 20.0777 19.9312 19.8741 19.868 19.8862 19.9122 19.9373 19.9578 19.9731 19.9836 19.9904 19.9947 19.9972 19.9986 19.9994 19.9998 20 20.0001 20.0001 20.0001 20.0001 20 20 19.9999 19.9999 19.9998 19.9998 19.9997 19.9996 19.9994 19.9991 19.9986 19.9979 19.9968 19.9954 19.9939 19.9926 19.9927 19.996 20.0056 20.0258 20.062 20.1189 20.1983 20.293 20.379 20.4047 20.279 
20.9048 20.4411 20.143 19.9767 19.9018 19.8825 19.892 19.913 19.9357 19.9555 19.9708 19.9816 19.9889 19.9936 19.9964 19.9981 19.999 19.9996 19.9998 19.9999 20 20 20 20 20 20 19.9999 19.9999 19.9998 19.9998 19.9997 19.9995 19.9991 19.9985 19.9976 19.9963 19.9945 19.9922 19.9897 19.9881 19.989 19.9956 20.0124 20.0457 20.1018 20.1852 20.293 20.4064 20.4796 20.4258 
20.9603 20.5107 20.2048 20.0228 19.932 19.8998 19.9004 19.916 19.9358 19.9543 19.9692 19.9802 19.9878 19.9928 19.9959 19.9977 19.9988 19.9994 19.9997 19.9999 19.9999 20 20 20 20 20 20 19.9999 19.9999 19.9998 19.9997 19.9995 19.9991 19.9985 19.9974 19.9958 19.9936 19.9906 19.987 19.9837 19.9822 19.9856 19.9987 20.0282 20.0822 20.1676 20.2857 20.4238 20.5427 20.5621 
20.9921 20.5677 20.2616 20.0683 19.9639 19.9197 19.9114 19.9211 19.9375 19.9542 19.9684 19.9793 19.987 19.9921 19.9954 19.9974 19.9986 19.9993 19.9996 19.9998 19.9999 20 20 20 20 20 20 19.9999 19.9999 19.9998 19.9997 19.9995 19.9991 19.9984 19.9972 19.9954 19.9928 19.9892 19.9846 19.9797 19.9758 19.9759 19.9849 20.0101 20.0605 20.1458 20.2714 20.4307 20.5924 20.6845 
20.9995 20.6107 20.3119 20.1122 19.9966 19.9415 19.9245 19.9281 19.9407 19.9553 19.9685 19.9789 19.9865 19.9917 19.9951 19.9972 19.9985 19.9992 19.9996 19.9998 19.9999 19.9999 20 20 20 20 20 20 19.9999 19.9999 19.9997 19.9995 19.9991 19.9983 19.9971 19.9951 19.9922 19.988 19.9825 19.9761 19.97 19.9669 19.9716 19.9917 20.0374 20.1205 20.2504 20.427 20.6276 20.7902 
20.9823 20.6387 20.3546 20.1533 20.0294 19.9648 19.9394 19.9369 19.9454 19.9575 19.9693 19.9791 19.9864 19.9915 19.9949 19.9971 19.9984 19.9991 19.9995 19.9998 19.9999 19.9999 20 20 20 20 20 20 19.9999 19.9999 19.9997 19.9995 19.9991 19.9983 19.997 19.995 19.9918 19.9872 19.9809 19.9732 19.9649 19.9586 19.9589 19.9734 20.0133 20.0921 20.2233 20.4129 20.6473 20.8763 
20.9409 20.651 20.3885 20.1907 20.0616 19.9889 19.9559 19.9473 19.9514 19.9607 19.9709 19.9797 19.9866 19.9916 19.9949 19.997 19.9983 19.9991 19.9995 19.9997 19.9999 19.9999 20 20 20 20 20 20 19.9999 19.9999 19.9997 19.9995 19.9991 19.9983 19.997 19.9949 19.9916 19.9866 19.9797 19.9709 19.9607 19.9514 19.9473 19.9559 19.9889 20.0616 20.1907 20.3885 20.651 20.9409 
20.8763 20.6473 20.4129 20.2233 20.0921 20.0133 19.9734 19.9589 19.9586 19.9649 19.9732 19.9809 19.9872 19.9918 19.9949 19.997 19.9983 19.999 19.9995 19.9997 19.9999 19.9999 20 20 20 20 20 20 19.9999 19.9999 19.9998 19.9995 19.9991 19.9984 19.9971 19.9949 19.9915 19.9864 19.9791 19.9693 19.9575 19.9454 19.9369 19.9394 19.9648 20.0294 20.1533 20.3546 20.6387 20.9823 
20.7902 20.6276 20.427 20.2504 20.1205 20.0374 19.9917 19.9716 19.9669 19.97 19.9761 19.9825 19.988 19.9922 19.9951 19.9971 19.9983 19.999 19.9995 19.9997 19.9998 19.9999 19.9999 20 20 20 20 20 19.9999 19.9999 19.9998 19.9996 19.9992 19.9985 19.9972 19.9951 19.9918 19.9866 19.9789 19.9685 19.9553 19.9407 19.9281 19.9245 19.9415 19.9966 20.1122 20.3119 20.6107 20.9995 
20.6845 20.5924 20.4307 20.2714 20.1458 20.0605 20.0101 19.9849 19.9759 19.9758 19.9796 19.9846 19.9891 19.9928 19.9954 19.9972 19.9983 19.999 19.9994 19.9997 19.9998 19.9999 19.9999 19.9999 20 20 20 20 20 19.9999 19.9998 19.9996 19.9993 19.9986 19.9974 19.9955 19.9922 19.987 19.9793 19.9685 19.9542 19.9375 19.9211 19.9114 19.9197 19.9639 20.0684 20.2616 20.5677 20.9921 
20.5621 20.5427 20.4238 20.2857 20.1676 20.0822 20.0282 19.9987 19.9856 19.9822 19.9836 19.987 19.9905 19.9935 19.9958 19.9974 19.9984 19.999 19.9994 19.9996 19.9998 19.9998 19.9999 19.9999 19.9999 20 20 20 20 20 19.9999 19.9997 19.9994 19.9988 19.9978 19.9959 19.9928 19.9879 19.9803 19.9693 19.9543 19.9359 19.9161 19.9005 19.8999 19.932 20.0228 20.2048 20.5107 20.9603 
20.4258 20.4796 20.4064 20.293 20.1852 20.1018 20.0456 20.0124 19.9955 19.9889 19.988 19.9897 19.9921 19.9944 19.9962 19.9975 19.9984 19.999 19.9993 19.9995 19.9997 19.9997 19.9998 19.9998 19.9999 19.9999 20 20 20 20 20 19.9999 19.9996 19.9991 19.9982 19.9966 19.9937 19.9891 19.9818 19.9709 19.9556 19.9358 19.9131 19.8921 19.8826 19.9019 19.9767 20.143 20.4411 20.9048 
20.279 20.4047 20.379 20.293 20.1983 20.1189 20.0619 20.0258 20.0055 19.9959 19.9926 19.9925 19.9937 19.9952 19.9966 19.9976 19.9983 19.9988 19.9991 19.9993 19.9995 19.9996 19.9997 19.9997 19.9998 19.9999 20 20 20.0001 20.0002 20.0002 20.0001 20 19.9996 19.9988 19.9974 19.9949 19.9907 19.9838 19.9733 19.9581 19.9375 19.9124 19.8864 19.8682 19.8742 19.9312 20.0777 20.3607 20.8271 
20.1253 20.3198 20.3423 20.2858 20.2064 20.133 20.0766 20.0384 20.0153 20.0029 19.9972 19.9953 19.9953 19.996 19.9969 19.9976 19.9981 19.9985 19.9988 19.999 19.9991 19.9993 19.9994 19.9996 19.9997 19.9999 20 20.0001 20.0003 20.0004 20.0005 20.0005 20.0005 20.0002 19.9997 19.9985 19.9964 19.9927 19.9865 19.9766 19.9617 19.9408 19.9139 19.8836 19.8571 19.8496 19.8875 20.0105 20.2714 20.729 
19.9686 20.227 20.2971 20.2714 20.2094 20.1437 20.0892 20.0499 20.0245 20.0095 20.0016 19.998 19.9967 19.9966 19.9968 19.9972 19.9976 19.9979 19.9982 19.9984 19.9986 19.9988 19.9991 19.9993 19.9996 19.9998 20.0001 20.0004 20.0006 20.0009 20.0011 20.0012 20.0013 20.0012 20.0009 20 19.9983 19.9952 19.9897 19.9807 19.9665 19.9458 19.9178 19.8838 19.8496 19.8288 19.8465 19.9431 20.1754 20.6129 
19.8126 20.1286 20.2445 20.2503 20.207 20.1506 20.0994 20.0599 20.0326 20.0154 20.0055 20.0002 19.9976 19.9966 19.9963 19.9964 19.9966 19.9968 19.9971 19.9974 19.9977 19.9981 19.9985 19.9989 19.9994 19.9999 20.0003 20.0008 20.0013 20.0017 20.0021 20.0024 20.0026 20.0027 20.0026 20.0021 20.0009 19.9984 19.9938 19.9857 19.9726 19.9524 19.9238 19.887 19.846 19.8123 19.8093 19.877 20.0751 20.4818 
19.6613 20.0269 20.1857 20.2227 20.1991 20.1534 20.1065 20.0677 20.0393 20.0202 20.0084 20.0014 19.9977 19.9958 19.995 19.9947 19.9947 19.995 19.9954 19.9958 19.9964 19.997 19.9977 19.9985 19.9993 20.0001 20.0009 20.0017 20.0024 20.0031 20.0038 20.0043 20.0048 20.0051 20.0052 20.005 20.0042 20.0024 19.9986 19.9917 19.9798 19.9606 19.932 19.8931 19.8462 19.8004 19.7768 19.814 19.9729 20.3387 
19.5182 19.9244 20.1219 20.1891 20.1856 20.1515 20.1101 20.0728 20.0438 20.0232 20.0097 20.0013 19.9964 19.9937 19.9923 19.9918 19.9918 19.9922 19.9928 19.9936 19.9946 19.9957 19.9969 19.9981 19.9995 20.0008 20.0021 20.0034 20.0046 20.0057 20.0067 20.0075 20.0082 20.0087 20.0091 20.0092 20.0087 20.0074 20.0045 19.9987 19.9881 19.9702 19.9422 19.9019 19.8501 19.7933 19.7496 19.7553 19.8713 20.1874 
19.3871 19.8234 20.0545 20.1498 20.1664 20.1445 20.1093 20.0743 20.0452 20.0236 20.0087 19.999 19.993 19.9896 19.9879 19.9873 19.9875 19.9881 19.9892 19.9906 19.9923 19.9941 19.9961 19.9982 20.0003 20.0025 20.0045 20.0065 20.0083 20.0099 20.0114 20.0125 20.0135 20.0142 20.0147 20.0149 20.0147 20.0137 20.0114 20.0065 19.9972 19.9807 19.9537 19.9129 19.8572 19.7907 19.7281 19.7023 19.7726 20.0314 
19.271 19.7261 19.9845 20.1052 20.1409 20.1314 20.1031 20.071 20.0426 20.0203 20.0043 19.9936 19.9869 19.983 19.9812 19.9808 19.9814 19.9828 19.9847 19.9871 19.9898 19.9928 19.996 19.9993 20.0027 20.0059 20.009 20.0119 20.0145 20.0168 20.0187 20.0202 20.0213 20.022 20.0224 20.0225 20.0222 20.0213 20.0192 20.015 20.0067 19.9916 19.9658 19.9252 19.8668 19.7921 19.7121 19.6558 19.6791 19.8747 
19.1729 19.6346 19.9131 20.0554 20.1087 20.1114 20.0902 20.0617 20.0345 20.0122 19.9956 19.9843 19.9773 19.9734 19.972 19.9722 19.9738 19.9764 19.9798 19.9838 19.9882 19.9929 19.9978 20.0028 20.0077 20.0124 20.0169 20.0209 20.0244 20.0273 20.0296 20.0313 20.0323 20.0327 20.0326 20.032 20.031 20.0296 20.0272 20.0231 20.0154 20.0014 19.9769 19.937 19.8772 19.7961 19.7011 19.616 19.5925 19.721 
19.0952 19.5506 19.8409 20 20.0687 20.0829 20.0691 20.0448 20.0195 19.9979 19.9816 19.9705 19.9639 19.9609 19.9605 19.9623 19.9657 19.9704 19.976 19.9823 19.9891 19.9962 20.0034 20.0106 20.0174 20.0239 20.0298 20.0349 20.0392 20.0426 20.0449 20.0463 20.0467 20.0461 20.0447 20.0427 20.0403 20.0374 20.0338 20.029 20.0212 20.0078 19.9846 19.946 19.886 19.8007 19.6935 19.5829 19.5145 19.5742 
19.0397 19.4754 19.7683 19.9388 20.02 20.0446 20.0383 20.0188 19.9965 19.9769 19.9622 19.9526 19.9476 19.9466 19.9487 19.9532 19.9595 19.9673 19.9762 19.9857 19.9957 20.0058 20.0158 20.0254 20.0344 20.0425 20.0496 20.0555 20.0601 20.0632 20.0647 20.0648 20.0635 20.0609 20.0571 20.0525 20.0473 20.0418 20.036 20.0294 20.0207 20.0074 19.9854 19.9485 19.8898 19.803 19.6874 19.5556 19.4462 19.4379 
19.0079 19.4101 19.6957 19.8712 19.9615 19.9954 19.9968 19.9833 19.9657 19.95 19.9387 19.9326 19.9313 19.9341 19.9403 19.9491 19.9599 19.9721 19.9852 19.9988 20.0126 20.026 20.0389 20.0508 20.0614 20.0706 20.078 20.0835 20.0869 20.0883 20.0875 20.0847 20.08 20.0735 20.0657 20.0569 20.0476 20.0381 20.0287 20.0193 20.0089 19.9952 19.9743 19.9402 19.8847 19.7996 19.6802 19.5331 19.3882 19.3155 
19.0005 19.3558 19.6238 19.7977 19.8938 19.9358 19.9458 19.9402 19.9299 19.9208 19.916 19.9161 19.9212 19.9303 19.9428 19.9578 19.9745 19.9922 20.0104 20.0285 20.0459 20.0622 20.0771 20.09 20.1008 20.109 20.1146 20.1174 20.1173 20.1143 20.1086 20.1003 20.0897 20.0772 20.0632 20.0483 20.0332 20.0184 20.0045 19.9916 19.9791 19.9652 19.9462 19.9162 19.8665 19.7873 19.67 19.5146 19.3417 19.2098 
19.0177 19.314 19.5551 19.7212 19.8201 19.8702 19.8905 19.896 19.8966 19.8983 19.9038 19.914 19.9287 19.9469 19.968 19.9907 20.0144 20.038 20.061 20.0826 20.1022 20.1193 20.1335 20.1445 20.1519 20.1555 20.1554 20.1514 20.1437 20.1325 20.1181 20.1008 20.0813 20.06 20.0377 20.0151 19.993 19.9724 19.9539 19.9379 19.9243 19.9116 19.8966 19.8736 19.8338 19.7659 19.6577 19.5024 19.3094 19.1237 
19.0591 19.2882 19.4955 19.6495 19.7499 19.8095 19.8436 19.8647 19.8816 19.8992 19.9198 19.9442 19.9717 20.0015 20.0324 20.0633 20.0933 20.1213 20.1465 20.1682 20.1858 20.1989 20.2071 20.2102 20.2081 20.2009 20.1888 20.1721 20.1511 20.1264 20.0986 20.0685 20.0369 20.0046 19.9726 19.9418 19.9134 19.8882 19.8673 19.8512 19.8399 19.8324 19.8258 19.8149 19.791 19.7416 19.6512 19.5049 19.2985 19.0591 
19.1237 19.2861 19.4581 19.5996 19.7032 19.7762 19.8294 19.8723 19.9115 19.9505 19.9909 20.0326 20.0748 20.1164 20.156 20.1925 20.2246 20.2515 20.2723 20.2865 20.2937 20.2938 20.2866 20.2723 20.2514 20.2242 20.1916 20.1542 20.113 20.0691 20.0235 19.9774 19.932 19.8885 19.848 19.8118 19.7809 19.7564 19.7393 19.73 19.7286 19.7342 19.7442 19.7538 19.7547 19.7337 19.6721 19.5452 19.3287 19.0177 
19.2098 19.3245 19.4699 19.6042 19.7166 19.8093 19.8885 19.9597 20.0267 20.0911 20.1531 20.212 20.2666 20.3154 20.3571 20.3904 20.4144 20.4284 20.4319 20.4249 20.4075 20.38 20.3432 20.298 20.2454 20.1868 20.1235 20.0573 19.9896 19.9222 19.8568 19.7949 19.7382 19.688 19.6458 19.6126 19.5895 19.5773 19.5765 19.5872 19.6091 19.641 19.6805 19.7232 19.7613 19.7822 19.7646 19.6731 19.4498 19.0005 
19.3155 19.4407 19.5802 19.7193 19.8493 19.9693 20.0805 20.184 20.2801 20.3682 20.4471 20.5154 20.5713 20.6136 20.6412 20.6531 20.6491 20.6293 20.594 20.5441 20.4808 20.4057 20.3206 20.2276 20.1291 20.0273 19.9249 19.8243 19.728 19.6385 19.5579 19.4882 19.4311 19.3881 19.3603 19.3484 19.3529 19.3737 19.4105 19.4623 19.528 19.6056 19.6923 19.784 19.8745 19.9537 20.0027 19.982 19.7935 19.0079 
19.4379 19.721 19.8747 20.0314 20.1874 20.3387 20.4818 20.6129 20.729 20.8271 20.9048 20.9603 20.9921 20.9995 20.9823 20.9409 20.8763 20.7902 20.6845 20.5621 20.4258 20.279 20.1253 19.9686 19.8126 19.6613 19.5182 19.3871 19.271 19.1729 19.0952 19.0397 19.0079 19.0005 19.0177 19.0591 19.1237 19.2098 19.3155 19.4379 19.5742 19.721 19.8747 20.0314 20.1874 20.3387 20.4818 20.6129 20.729 19.0397 
