# vtk DataFile Version 3.0
Temperature distribution on a 2D grid
ASCII

DATASET STRUCTURED_POINTS
DIMENSIONS 50 50 1
ORIGIN 0.0 0.0 0.0
SPACING 0.01 0.01 1.0

POINT_DATA 2500
SCALARS temperature double
LOOKUP_TABLE default
19.5182 20.3387 20.1874 20.0314 19.8747 19.721 19.5742 19.4379 19.3155 19.2098 19.1237 19.0591 19.0177 19.0005 19.0079 19.0397 19.0952 19.1729 19.271 19.3871 19.5182 19.6613 19.8126 19.9686 20.1253 20.279 20.4258 20.5621 20.6845 20.7902 20.8763 20.9409 20.9823 20.9995 20.9921 20.9603 20.9048 20.8271 20.729 20.6129 20.4818 20.3387 20.1874 20.0314 19.8747 19.721 19.5742 19.4379 19.3155 19.1237 
19.3871 19.8066 19.856 19.8059 19.7225 19.6326 19.5483 19.4755 19.4175 19.3759 19.3515 19.3444 19.3543 19.3808 19.4229 19.4793 19.5487 19.6291 19.7188 19.8153 19.9163 20.0195 20.1221 20.2217 20.3159 20.4023 20.4788 20.5435 20.5949 20.6317 20.6529 20.658 20.647 20.62 20.5778 20.5214 20.4524 20.3723 20.2835 20.1881 20.0886 19.9874 19.8862 19.7862 19.6869 19.5858 19.4783 19.3581 19.2203 19.0591 
19.271 19.6142 19.7403 19.76 19.7322 19.6885 19.6454 19.6111 19.5893 19.5812 19.5866 19.6047 19.6343 19.674 19.7224 19.778 19.8393 19.9045 19.9721 20.0403 20.1075 20.172 20.2324 20.2869 20.3345 20.3738 20.4039 20.4242 20.434 20.4331 20.4217 20.3999 20.3682 20.3275 20.2789 20.2234 20.1627 20.0984 20.0323 19.9663 19.9022 19.8415 19.7845 19.7299 19.6737 19.6083 19.5216 19.3993 19.23 19.0177 
19.1729 19.5296 19.7123 19.7866 19.8022 19.7916 19.7743 19.7608 19.7559 19.7612 19.7764 19.8005 19.8319 19.869 19.9102 19.9542 19.9994 20.0448 20.0891 20.1311 20.1699 20.2044 20.2339 20.2577 20.2751 20.2858 20.2895 20.2861 20.2757 20.2586 20.2351 20.2059 20.1717 20.1333 20.0917 20.0479 20.0033 19.9592 19.9171 19.8783 19.8442 19.8155 19.7917 19.7696 19.7429 19.6998 19.6227 19.4902 19.2835 19.0005 
19.0952 19.4779 19.7069 19.8255 19.8755 19.8892 19.8881 19.8846 19.8854 19.893 19.9075 19.928 19.9531 19.9811 20.0108 20.0409 20.0702 20.0978 20.1231 20.1453 20.1638 20.1783 20.1884 20.1938 20.1945 20.1904 20.1818 20.1686 20.1514 20.1306 20.1065 20.0799 20.0514 20.0217 19.9915 19.9617 19.9333 19.9071 19.8845 19.8664 19.854 19.8476 19.8459 19.8454 19.8378 19.8089 19.7371 19.595 19.356 19.0079 
19.0397 19.4364 19.6982 19.8507 19.9277 19.9598 19.9693 19.9705 19.9718 19.9766 19.9861 19.9996 20.0162 20.0343 20.053 20.071 20.0876 20.1022 20.1143 20.1234 20.1295 20.1324 20.132 20.1283 20.1215 20.1118 20.0993 20.0845 20.0677 20.0493 20.0297 20.0095 19.9891 19.969 19.9498 19.932 19.9162 19.9034 19.8942 19.8899 19.8912 19.8984 19.9105 19.9234 19.9285 19.91 19.8439 19.698 19.4379 19.0397 
19.0079 19.4003 19.6799 19.856 19.9536 19.9998 20.0171 20.021 20.021 20.022 20.0257 20.0323 20.0411 20.0511 20.0611 20.0705 20.0784 20.0846 20.0887 20.0906 20.0901 20.0874 20.0826 20.0757 20.0669 20.0566 20.0449 20.0322 20.0188 20.005 19.9912 19.9776 19.9647 19.9527 19.9419 19.9328 19.9256 19.9212 19.9201 19.9235 19.9323 19.947 19.9668 19.9881 20.0022 19.9933 19.9357 19.7935 19.5255 19.0952 
19.0005 19.3708 19.6545 19.8446 19.9569 20.0143 20.0382 20.0444 20.0434 20.0411 20.0402 20.0414 20.0445 20.0485 20.0528 20.0567 20.0596 20.0611 20.0612 20.0597 20.0567 20.0522 20.0464 20.0395 20.0316 20.023 20.0138 20.0045 19.9951 19.9859 19.9772 19.9691 19.9618 19.9555 19.9504 19.9466 19.9445 19.9445 19.9475 19.9544 19.9664 19.9844 20.0081 20.0347 20.0563 20.0573 20.0117 19.8811 19.6177 19.1729 
19.0177 19.3508 19.6265 19.8224 19.9446 20.011 20.0408 20.0497 20.0488 20.0446 20.0408 20.0384 20.0377 20.0382 20.0391 20.0399 20.0403 20.0398 20.0384 20.0359 20.0325 20.0283 20.0233 20.0177 20.0117 20.0055 19.9992 19.993 19.9871 19.9816 19.9767 19.9724 19.9688 19.9661 19.9642 19.9632 19.9635 19.9654 19.9696 19.9774 19.99 20.0088 20.0342 20.0644 20.0926 20.1045 20.0742 19.9618 19.7141 19.271 
19.0591 19.3431 19.6007 19.7954 19.9234 19.9968 20.0322 20.0445 20.0448 20.0403 20.035 20.0307 20.028 20.0265 20.0257 20.0253 20.0247 20.0237 20.0221 20.02 20.0173 20.0141 20.0105 20.0066 20.0026 19.9985 19.9946 19.9909 19.9875 19.9845 19.982 19.9801 19.9787 19.9778 19.9775 19.9777 19.9786 19.9808 19.9847 19.9918 20.0036 20.0218 20.0477 20.0805 20.115 20.1383 20.1257 20.0367 19.8139 19.3871 
19.1237 19.3494 19.581 19.7685 19.8986 19.9774 20.018 20.0342 20.0366 20.0329 20.0274 20.0225 20.0189 20.0165 20.0152 20.0144 20.0137 20.0129 20.0119 20.0105 20.0088 20.0068 20.0045 20.0022 19.9997 19.9974 19.9951 19.9931 19.9913 19.9899 19.9888 19.9881 19.9877 19.9876 19.9878 19.9882 19.989 19.9905 19.9935 19.9992 20.0094 20.0263 20.052 20.0867 20.127 20.1619 20.1685 20.1067 19.9163 19.5182 
19.2098 19.3707 19.5697 19.7449 19.8739 19.9563 20.0017 20.0219 20.0272 20.025 20.0203 20.0155 20.0117 20.0093 20.0079 20.0071 20.0068 20.0065 20.0061 20.0055 20.0047 20.0037 20.0026 20.0013 20 19.9988 19.9976 19.9965 19.9957 19.995 19.9947 19.9945 19.9945 19.9946 19.9948 19.9949 19.9952 19.9958 19.9975 20.0016 20.01 20.0253 20.0501 20.0862 20.1316 20.1778 20.2041 20.1718 20.0195 19.6613 
19.3155 19.4072 19.5683 19.7269 19.8516 19.9358 19.9853 20.0095 20.0179 20.0179 20.0144 20.0102 20.0068 20.0045 20.0033 20.0028 20.0028 20.003 20.0032 20.0033 20.0032 20.0029 20.0025 20.002 20.0014 20.0007 20.0002 19.9997 19.9992 19.999 19.9989 19.9988 19.9989 19.999 19.9989 19.9987 19.9983 19.998 19.9984 20.0009 20.0074 20.0209 20.0446 20.0812 20.131 20.1876 20.2332 20.2318 20.1218 19.8126 
19.4379 19.4581 19.5775 19.7156 19.8331 19.9173 19.9698 19.9977 20.0094 20.0118 20.0098 20.0066 20.0037 20.0017 20.0007 20.0005 20.0008 20.0013 20.0019 20.0024 20.0028 20.003 20.003 20.0029 20.0027 20.0024 20.0021 20.0018 20.0016 20.0014 20.0014 20.0013 20.0013 20.0012 20.0009 20.0003 19.9994 19.9983 19.9977 19.9987 20.0034 20.0148 20.0369 20.0735 20.1264 20.1921 20.2562 20.2857 20.2209 19.9686 
19.5742 19.5225 19.5972 19.7115 19.8191 19.9014 19.9558 19.9869 20.0017 20.0065 20.0062 20.004 20.0017 20.0001 19.9993 19.9993 19.9998 20.0005 20.0013 20.0021 20.0027 20.0031 20.0034 20.0035 20.0035 20.0034 20.0032 20.003 20.0028 20.0026 20.0025 20.0025 20.0024 20.0021 20.0017 20.0008 19.9995 19.9978 19.9962 19.9959 19.9988 20.0081 20.0281 20.0638 20.1187 20.192 20.2729 20.3326 20.3146 20.1253 
19.721 19.5986 19.627 19.7148 19.8099 19.8884 19.9435 19.9771 19.9947 20.0018 20.0032 20.0021 20.0005 19.9992 19.9986 19.9987 19.9993 20.0001 20.001 20.0019 20.0026 20.0031 20.0035 20.0037 20.0037 20.0037 20.0035 20.0033 20.0031 20.0029 20.0028 20.0027 20.0025 20.0022 20.0017 20.0007 19.9991 19.997 19.9946 19.9931 19.9942 20.0012 20.0189 20.0528 20.1083 20.1873 20.2831 20.3715 20.4006 20.279 
19.8747 19.6848 19.6661 19.7253 19.8057 19.8785 19.9329 19.9683 19.9882 19.9975 20.0006 20.0006 19.9996 19.9987 19.9982 19.9984 19.9989 19.9997 20.0006 20.0015 20.0023 20.0028 20.0032 20.0034 20.0035 20.0034 20.0033 20.0031 20.0029 20.0027 20.0025 20.0024 20.0022 20.0019 20.0014 20.0003 19.9986 19.9962 19.9932 19.9905 19.9899 19.9946 20.0094 20.0407 20.0955 20.1783 20.2865 20.4014 20.4768 20.4258 
20.0314 19.7787 19.7136 19.7427 19.8064 19.8717 19.9242 19.9604 19.9822 19.9935 19.9981 19.9992 19.9989 19.9983 19.9979 19.9981 19.9986 19.9993 20.0002 20.001 20.0018 20.0023 20.0027 20.0029 20.003 20.0029 20.0028 20.0026 20.0023 20.0021 20.002 20.0018 20.0017 20.0014 20.0009 19.9999 19.9981 19.9955 19.992 19.9884 19.9861 19.9883 19.9999 20.028 20.0806 20.1651 20.283 20.4215 20.5414 20.5621 
20.1874 19.8781 19.7681 19.7665 19.8119 19.8682 19.9175 19.9536 19.9767 19.9897 19.9958 19.9979 19.9982 19.9979 19.9977 19.9978 19.9982 19.9989 19.9997 20.0005 20.0011 20.0017 20.002 20.0022 20.0023 20.0022 20.0021 20.0019 20.0017 20.0015 20.0013 20.0012 20.0011 20.0009 20.0004 19.9995 19.9978 19.995 19.9911 19.9866 19.9827 19.9824 19.9906 20.0146 20.0639 20.148 20.2727 20.4313 20.5926 20.6845 
20.3387 19.9806 19.8283 19.796 19.8221 19.8679 19.9127 19.9479 19.9718 19.9861 19.9934 19.9966 19.9975 19.9975 19.9974 19.9976 19.9979 19.9985 19.9992 19.9999 20.0005 20.001 20.0013 20.0015 20.0016 20.0016 20.0014 20.0012 20.001 20.0009 20.0007 20.0006 20.0005 20.0004 20 19.9991 19.9975 19.9946 19.9904 19.9851 19.9798 19.977 19.9816 20.001 20.0456 20.1273 20.2556 20.4305 20.6293 20.7902 
20.4818 20.0834 19.8928 19.8305 19.8366 19.8708 19.9101 19.9434 19.9675 19.9827 19.9912 19.9952 19.9968 19.9972 19.9972 19.9973 19.9976 19.9981 19.9987 19.9993 19.9999 20.0004 20.0007 20.0009 20.001 20.0009 20.0008 20.0006 20.0005 20.0003 20.0002 20.0001 20 19.9999 19.9996 19.9988 19.9972 19.9944 19.99 19.9841 19.9774 19.9722 19.9729 19.9873 20.0262 20.1034 20.2323 20.4191 20.6505 20.8763 
20.6129 20.1843 19.9598 19.8692 19.8551 19.8768 19.9095 19.9403 19.9639 19.9798 19.9891 19.994 19.9961 19.9969 19.9971 19.9972 19.9975 19.9979 19.9984 19.9989 19.9994 19.9998 20.0001 20.0003 20.0004 20.0004 20.0003 20.0002 20 19.9998 19.9997 19.9996 19.9995 19.9995 19.9992 19.9985 19.997 19.9943 19.9898 19.9833 19.9754 19.9679 19.9649 19.9738 20.0061 20.0769 20.2032 20.3974 20.6556 20.9409 
20.729 20.2805 20.0278 19.9111 19.8771 19.8858 19.9112 19.9385 19.9612 19.9772 19.9873 19.9928 19.9955 19.9966 19.997 19.9971 19.9974 19.9977 19.9981 19.9986 19.999 19.9994 19.9997 19.9999 20 20 19.9999 19.9998 19.9996 19.9994 19.9993 19.9992 19.9991 19.999 19.9988 19.9982 19.9969 19.9942 19.9897 19.9829 19.974 19.9643 19.9576 19.9609 19.9857 20.0485 20.1691 20.3658 20.6446 20.9823 
20.8271 20.3699 20.0951 19.955 19.902 19.8976 19.915 19.9382 19.9593 19.9752 19.9856 19.9918 19.995 19.9964 19.997 19.9972 19.9974 19.9976 19.998 19.9984 19.9988 19.9991 19.9994 19.9996 19.9997 19.9997 19.9997 19.9995 19.9993 19.9991 19.999 19.9988 19.9987 19.9987 19.9985 19.998 19.9968 19.9943 19.9898 19.9828 19.9731 19.9616 19.9513 19.9489 19.9656 20.0188 20.1307 20.3252 20.6177 20.9995 
20.9048 20.4501 20.16 20.0001 19.9294 19.9118 19.9207 19.9394 19.9583 19.9736 19.9843 19.9909 19.9945 19.9963 19.997 19.9973 19.9975 19.9977 19.998 19.9983 19.9986 19.999 19.9993 19.9995 19.9996 19.9996 19.9995 19.9994 19.9992 19.999 19.9987 19.9986 19.9984 19.9983 19.9982 19.9977 19.9967 19.9944 19.9901 19.9831 19.9728 19.9597 19.9461 19.9381 19.9463 19.9886 20.0891 20.2766 20.5756 20.9921 
20.9603 20.5192 20.221 20.0451 19.9584 19.9281 19.9284 19.9419 19.9583 19.9727 19.9833 19.9902 19.9942 19.9962 19.9971 19.9975 19.9977 19.9978 19.998 19.9983 19.9986 19.9989 19.9992 19.9994 19.9995 19.9996 19.9995 19.9994 19.9992 19.9989 19.9986 19.9984 19.9982 19.9981 19.9979 19.9976 19.9967 19.9946 19.9906 19.9837 19.9731 19.9587 19.9422 19.9287 19.9283 19.9585 20.0452 20.2211 20.5192 20.9603 
20.9921 20.5755 20.2765 20.0889 19.9883 19.9461 19.9377 19.9458 19.9593 19.9724 19.9826 19.9897 19.9939 19.9962 19.9973 19.9977 19.9979 19.998 19.9982 19.9985 19.9987 19.999 19.9993 19.9995 19.9996 19.9996 19.9996 19.9995 19.9992 19.999 19.9986 19.9983 19.9981 19.9979 19.9977 19.9974 19.9967 19.9949 19.9913 19.9847 19.974 19.9586 19.9396 19.921 19.9119 19.9295 20.0002 20.1601 20.4501 20.9048 
20.9995 20.6176 20.3251 20.1305 20.0185 19.9653 19.9485 19.9509 19.9611 19.9726 19.9823 19.9893 19.9937 19.9962 19.9975 19.998 19.9982 19.9983 19.9985 19.9987 19.9989 19.9992 19.9994 19.9996 19.9998 19.9999 19.9998 19.9997 19.9994 19.9991 19.9988 19.9984 19.9981 19.9978 19.9976 19.9974 19.9968 19.9954 19.9922 19.986 19.9755 19.9596 19.9385 19.9151 19.8977 19.9022 19.9551 20.0952 20.3699 20.8271 
20.9823 20.6445 20.3657 20.1688 20.0482 19.9853 19.9605 19.9571 19.9638 19.9734 19.9823 19.9891 19.9936 19.9963 19.9977 19.9983 19.9986 19.9987 19.9988 19.999 19.9992 19.9995 19.9997 20 20.0001 20.0002 20.0002 20 19.9998 19.9995 19.999 19.9986 19.9982 19.9979 19.9976 19.9975 19.997 19.9959 19.9932 19.9876 19.9775 19.9614 19.9388 19.9114 19.886 19.8772 19.9111 20.0279 20.2805 20.729 
20.9409 20.6555 20.3972 20.2029 20.0765 20.0056 19.9733 19.9643 19.9673 19.9747 19.9826 19.9891 19.9936 19.9964 19.9979 19.9986 19.9989 19.9991 19.9992 19.9994 19.9996 19.9999 20.0001 20.0004 20.0006 20.0007 20.0007 20.0005 20.0003 19.9999 19.9994 19.9989 19.9984 19.998 19.9977 19.9976 19.9973 19.9966 19.9944 19.9895 19.9801 19.9642 19.9405 19.9097 19.8769 19.8552 19.8693 19.9599 20.1843 20.6129 
20.8763 20.6504 20.4189 20.232 20.103 20.0257 19.9867 19.9722 19.9714 19.9766 19.9833 19.9892 19.9936 19.9965 19.9981 19.9989 19.9993 19.9995 19.9997 19.9998 20.0001 20.0003 20.0006 20.0009 20.0011 20.0012 20.0013 20.0011 20.0009 20.0005 19.9999 19.9993 19.9987 19.9982 19.9979 19.9978 19.9977 19.9972 19.9956 19.9916 19.983 19.9678 19.9437 19.9102 19.8709 19.8367 19.8306 19.8928 20.0835 20.4818 
20.7902 20.6292 20.4303 20.2553 20.1268 20.045 20.0003 19.9808 19.9762 19.979 19.9843 19.9896 19.9938 19.9966 19.9984 19.9993 19.9998 20 20.0002 20.0004 20.0006 20.0009 20.0012 20.0015 20.0018 20.0019 20.0019 20.0018 20.0015 20.0011 20.0005 19.9998 19.9991 19.9985 19.9981 19.998 19.998 19.9979 19.997 19.9938 19.9864 19.9721 19.9481 19.9129 19.868 19.8222 19.7961 19.8284 19.9806 20.3387 
20.6845 20.5925 20.4311 20.2723 20.1476 20.0633 20.014 19.9899 19.9816 19.9819 19.9857 19.9902 19.9941 19.9969 19.9987 19.9997 20.0002 20.0005 20.0007 20.0009 20.0012 20.0015 20.0018 20.0021 20.0024 20.0025 20.0026 20.0024 20.0021 20.0017 20.001 20.0003 19.9995 19.9988 19.9984 19.9982 19.9984 19.9987 19.9983 19.9961 19.99 19.9771 19.9539 19.9177 19.8684 19.8121 19.7666 19.7682 19.8782 20.1874 
20.5621 20.5413 20.4213 20.2827 20.1648 20.0802 20.0274 19.9993 19.9876 19.9853 19.9876 19.9912 19.9946 19.9973 19.9991 20.0001 20.0007 20.001 20.0012 20.0015 20.0017 20.002 20.0023 20.0026 20.0029 20.003 20.0031 20.0029 20.0026 20.0021 20.0015 20.0007 19.9999 19.9991 19.9986 19.9985 19.9988 19.9994 19.9997 19.9986 19.994 19.9827 19.9608 19.9246 19.872 19.8067 19.7429 19.7137 19.7788 20.0314 
20.4258 20.4768 20.4013 20.2864 20.1782 20.0953 20.0405 20.009 19.9941 19.9894 19.9899 19.9925 19.9954 19.9978 19.9994 20.0005 20.001 20.0013 20.0016 20.0017 20.002 20.0022 20.0025 20.0028 20.0031 20.0032 20.0033 20.0032 20.0029 20.0024 20.0018 20.001 20.0001 19.9994 19.9989 19.9988 19.9993 20.0003 20.0013 20.0013 19.9982 19.9889 19.969 19.9336 19.8791 19.8062 19.7257 19.6664 19.6849 19.8747 
20.279 20.4007 20.3716 20.2832 20.1875 20.1084 20.0528 20.0188 20.0011 19.9939 19.9926 19.994 19.9962 19.9982 19.9997 20.0006 20.001 20.0013 20.0014 20.0015 20.0017 20.0019 20.0022 20.0025 20.0027 20.0029 20.003 20.003 20.0028 20.0024 20.0019 20.0012 20.0004 19.9997 19.9993 19.9994 20.0001 20.0015 20.0032 20.0044 20.003 19.9958 19.9783 19.9446 19.8894 19.8107 19.7155 19.6275 19.5989 19.721 
20.1253 20.3148 20.333 20.2734 20.1925 20.1192 20.0642 20.0285 20.0082 19.9986 19.9955 19.9956 19.9969 19.9983 19.9994 20 20.0003 20.0004 20.0004 20.0004 20.0005 20.0007 20.001 20.0013 20.0017 20.002 20.0022 20.0024 20.0024 20.0022 20.0019 20.0015 20.0009 20.0005 20.0002 20.0005 20.0015 20.0033 20.0058 20.0081 20.0084 20.0037 19.9889 19.9576 19.903 19.8204 19.7125 19.5979 19.5228 19.5742 
19.9686 20.2212 20.2862 20.2569 20.193 20.1272 20.0742 20.0374 20.015 20.0032 19.9981 19.9966 19.9968 19.9975 19.998 19.9983 19.9983 19.9982 19.998 19.998 19.9981 19.9983 19.9987 19.9992 19.9997 20.0003 20.0009 20.0015 20.0019 20.0022 20.0023 20.0023 20.0022 20.0021 20.0022 20.0028 20.0042 20.0064 20.0095 20.0129 20.0149 20.0125 20.0007 19.9725 19.9197 19.835 19.717 19.5785 19.4586 19.4379 
19.8126 20.1221 20.2323 20.234 20.1884 20.1317 20.0818 20.0448 20.0206 20.0066 19.9994 19.9963 19.9952 19.9949 19.9947 19.9945 19.9942 19.9939 19.9937 19.9937 19.9939 19.9944 19.9951 19.996 19.9971 19.9984 19.9996 20.0009 20.002 20.003 20.0039 20.0046 20.0051 20.0055 20.0061 20.0071 20.0087 20.0114 20.015 20.0192 20.0227 20.0225 20.0137 19.9889 19.9389 19.8539 19.7286 19.5694 19.4077 19.3155 
19.6613 20.0196 20.1719 20.2041 20.1778 20.1314 20.0855 20.049 20.0234 20.0073 19.998 19.9931 19.9905 19.9892 19.9883 19.9877 19.9872 19.9869 19.9869 19.9873 19.9881 19.9892 19.9908 19.9926 19.9947 19.997 19.9994 20.0017 20.004 20.0061 20.008 20.0096 20.0109 20.012 20.013 20.0143 20.0161 20.0188 20.0226 20.0272 20.0316 20.0331 20.0271 20.0059 19.9595 19.8761 19.7463 19.5704 19.371 19.2098 
19.5182 19.9156 20.1053 20.1666 20.1595 20.124 20.083 20.0475 20.021 20.0031 19.9918 19.9852 19.9813 19.9791 19.9778 19.9771 19.9768 19.9771 19.978 19.9794 19.9814 19.9839 19.987 19.9905 19.9942 19.9982 20.0022 20.0062 20.01 20.0135 20.0165 20.0191 20.0211 20.0227 20.024 20.0252 20.0266 20.0288 20.0321 20.0363 20.0408 20.0433 20.0394 20.0217 19.9794 19.8992 19.7682 19.5803 19.3489 19.1237 
19.3871 19.8117 20.0324 20.1197 20.1309 20.1064 20.0709 20.0371 20.0102 19.991 19.9783 19.9704 19.9659 19.9634 19.9625 19.9626 19.9636 19.9655 19.9682 19.9717 19.9761 19.9811 19.9866 19.9926 19.9989 20.0052 20.0114 20.0174 20.0229 20.0277 20.0318 20.0351 20.0374 20.0389 20.0396 20.0398 20.04 20.0406 20.0421 20.0447 20.048 20.0503 20.0475 20.0327 19.995 19.9198 19.7911 19.5969 19.3408 19.0591 
19.271 19.7089 19.952 20.0607 20.0883 20.0744 20.0448 20.0137 19.9875 19.9682 19.9553 19.9475 19.9436 19.9424 19.9433 19.9459 19.9498 19.955 19.9612 19.9685 19.9766 19.9854 19.9947 20.0041 20.0135 20.0227 20.0313 20.0392 20.046 20.0517 20.056 20.0589 20.0603 20.0602 20.0589 20.0565 20.0537 20.0509 20.0489 20.0482 20.0486 20.049 20.0461 20.0335 20.0006 19.9324 19.8101 19.6164 19.3451 19.0177 
19.1729 19.6077 19.8624 19.9863 20.0272 20.0233 20.0003 19.9734 19.95 19.9328 19.9221 19.917 19.9163 19.919 19.9244 19.932 19.9414 19.9522 19.9642 19.9771 19.9907 20.0046 20.0184 20.0319 20.0446 20.0563 20.0667 20.0754 20.0822 20.087 20.0896 20.0899 20.0879 20.0838 20.0778 20.0703 20.0619 20.0534 20.0456 20.0393 20.0349 20.0317 20.0273 20.0163 19.9887 19.9296 19.8188 19.6341 19.3594 19.0005 
19.0952 19.5083 19.7616 19.8928 19.9436 19.9492 19.9345 19.9147 19.8976 19.8866 19.8823 19.8839 19.8906 19.9013 19.9151 19.9313 19.9493 19.9685 19.9886 20.0091 20.0293 20.0489 20.0674 20.0842 20.0991 20.1116 20.1213 20.1281 20.1317 20.132 20.129 20.1228 20.1136 20.1015 20.0871 20.0709 20.0537 20.0365 20.0204 20.0065 19.9955 19.9875 19.9809 19.9713 19.9503 19.9035 19.8102 19.6443 19.3807 19.0079 
19.0397 19.411 19.6485 19.7787 19.8362 19.8521 19.8492 19.8415 19.8368 19.8383 19.8467 19.8614 19.8813 19.9053 19.9322 19.9611 19.9911 20.0213 20.0511 20.0796 20.1062 20.1303 20.1512 20.1684 20.1816 20.1903 20.1944 20.1936 20.1881 20.178 20.1634 20.1448 20.1225 20.0972 20.0697 20.0408 20.0115 19.9831 19.9569 19.9343 19.9165 19.904 19.8961 19.8897 19.8778 19.8477 19.7792 19.6438 19.4073 19.0397 
19.0079 19.3177 19.5255 19.6476 19.7109 19.7408 19.7562 19.7691 19.7858 19.8089 19.8387 19.8744 19.9146 19.9578 20.0025 20.0474 20.0913 20.133 20.1714 20.2056 20.2349 20.2583 20.2755 20.2859 20.2894 20.2857 20.275 20.2576 20.2338 20.2042 20.1696 20.1307 20.0886 20.0444 19.9991 19.9541 19.9107 19.8706 19.8351 19.8058 19.7842 19.7712 19.7665 19.7682 19.7709 19.7641 19.7293 19.6366 19.443 19.0952 
19.0005 19.2354 19.404 19.5155 19.5884 19.6405 19.6853 19.7309 19.7811 19.8372 19.8985 19.9636 20.0305 20.0973 20.1621 20.2231 20.2786 20.3273 20.368 20.3997 20.4215 20.433 20.4339 20.4241 20.4039 20.3737 20.3344 20.2869 20.2322 20.1719 20.1073 20.04 19.9718 19.9042 19.839 19.778 19.7228 19.6751 19.6366 19.6086 19.5924 19.5888 19.598 19.6183 19.646 19.6726 19.6825 19.6461 19.5097 19.1729 
19.0177 19.1829 19.313 19.4204 19.5145 19.6036 19.6936 19.7871 19.8847 19.9853 20.0868 20.1867 20.2826 20.3718 20.452 20.5213 20.5777 20.6199 20.6469 20.6579 20.6528 20.6316 20.5949 20.5435 20.4788 20.4023 20.3159 20.2217 20.122 20.0194 19.9162 19.8152 19.7186 19.629 19.5485 19.4793 19.4231 19.3814 19.3555 19.3464 19.3546 19.3801 19.4224 19.4799 19.5495 19.6253 19.6956 19.7351 19.6807 19.271 
19.0591 19.2098 19.3155 19.4379 19.5742 19.721 19.8747 20.0314 20.1874 20.3387 20.4818 20.6129 20.729 20.8271 20.9048 20.9603 20.9921 20.9995 20.9823 20.9409 20.8763 20.7902 20.6845 20.5621 20.4258 20.279 20.1253 19.9686 19.8126 19.6613 19.5182 19.3871 19.271 19.1729 19.0952 19.0397 19.0079 19.0005 19.0177 19.0591 19.1237 19.2098 19.3155 19.4379 19.5742 19.721 19.8747 20.0314 20.1874 19.3871 
