# vtk DataFile Version 3.0
Temperature distribution on a 2D grid
ASCII

DATASET STRUCTURED_POINTS
DIMENSIONS 50 50 1
ORIGIN 0.0 0.0 0.0
SPACING 0.01 0.01 1.0

POINT_DATA 2500
SCALARS temperature double
LOOKUP_TABLE default
19.546 20.5878 20.7071 20.809 20.891 20.9511 20.9877 21 20.9877 20.9511 20.891 20.809 20.7071 20.5878 20.454 20.309 20.1564 20 19.8436 19.691 19.546 19.4122 19.2929 19.191 19.109 19.0489 19.0123 19 19.0123 19.0489 19.109 19.191 19.2929 19.4122 19.546 19.691 19.8436 20 20.1564 20.309 20.454 20.5878 20.7071 20.809 20.891 20.9511 20.9877 21 20.9877 20.891 
19.691 20.1528 20.3649 20.492 20.5676 20.606 20.6149 20.599 20.5621 20.5076 20.4383 20.3569 20.2661 20.1686 20.0669 19.9636 19.8613 19.7625 19.6696 19.5849 19.5104 19.4481 19.3993 19.3653 19.347 19.3447 19.3586 19.3883 19.4331 19.4918 19.5631 19.6452 19.736 19.8334 19.935 20.0382 20.1405 20.2394 20.3322 20.4164 20.4896 20.5495 20.5943 20.6229 20.6359 20.6366 20.633 20.6407 20.6864 20.809 
19.8436 19.9668 20.0986 20.2022 20.27 20.3043 20.3101 20.293 20.258 20.2098 20.1522 20.0885 20.0215 19.9536 19.8867 19.8228 19.7633 19.7099 19.6637 19.626 19.5974 19.5789 19.5707 19.5731 19.5861 19.6092 19.642 19.6836 19.7331 19.7891 19.8504 19.9154 19.9826 20.0503 20.1169 20.1808 20.2403 20.2938 20.3398 20.3767 20.4028 20.4166 20.417 20.4037 20.3792 20.3504 20.3321 20.3519 20.4545 20.7071 
20 19.9104 19.9385 19.9982 20.0519 20.086 20.0982 20.0911 20.0689 20.0363 19.9973 19.9552 19.9125 19.8715 19.8334 19.7997 19.7711 19.7483 19.732 19.7224 19.7197 19.7239 19.735 19.7526 19.7764 19.8057 19.8397 19.8778 19.9189 19.9621 20.0062 20.0503 20.0932 20.134 20.1717 20.2054 20.2342 20.2572 20.2734 20.2819 20.2814 20.2704 20.2478 20.2138 20.1712 20.1285 20.1044 20.1327 20.2681 20.5878 
20.1564 19.9275 19.867 19.8811 19.9174 19.9504 19.9703 19.9755 19.9682 19.9522 19.931 19.9077 19.8848 19.8639 19.8462 19.8324 19.8231 19.8183 19.8183 19.8229 19.8319 19.8452 19.8623 19.8829 19.9063 19.9321 19.9596 19.9881 20.017 20.0455 20.0729 20.0987 20.1222 20.1429 20.1603 20.174 20.1837 20.1889 20.189 20.1833 20.1704 20.1489 20.1173 20.075 20.0246 19.9745 19.9445 19.971 20.113 20.454 
20.309 19.9872 19.8579 19.8314 19.8497 19.8795 19.905 19.9205 19.9259 19.9235 19.9163 19.907 19.8978 19.8901 19.8848 19.8826 19.8835 19.8875 19.8946 19.9045 19.9168 19.9312 19.9474 19.9649 19.9834 20.0022 20.0211 20.0394 20.0569 20.073 20.0874 20.0998 20.1099 20.1175 20.1226 20.1249 20.1246 20.1213 20.1146 20.1039 20.0876 20.064 20.031 19.9871 19.9336 19.8779 19.8387 19.8524 19.9798 20.309 
20.454 20.07 19.8886 19.8276 19.8279 19.8522 19.8801 19.9024 19.9168 19.9241 19.9265 19.9264 19.9255 19.9254 19.9267 19.9299 19.935 19.9421 19.9509 19.961 19.9722 19.9842 19.9967 20.0093 20.0216 20.0335 20.0446 20.0546 20.0634 20.0706 20.0763 20.0801 20.0823 20.0826 20.0813 20.0784 20.074 20.0681 20.0602 20.0496 20.0348 20.0135 19.9828 19.9402 19.8855 19.8241 19.7723 19.7649 19.8625 20.1564 
20.5878 20.1632 19.9421 19.8515 19.8341 19.8507 19.8778 19.9035 19.9232 19.9365 19.9448 19.95 19.9536 19.9571 19.9611 19.966 19.9721 19.979 19.9868 19.995 20.0035 20.012 20.0203 20.0281 20.0352 20.0415 20.0468 20.051 20.0541 20.0559 20.0564 20.0556 20.0537 20.0508 20.047 20.0426 20.0377 20.0322 20.026 20.018 20.0067 19.9894 19.9625 19.9225 19.8672 19.7996 19.7332 19.6996 19.7575 20 
20.7071 20.2583 20.0068 19.8905 19.8556 19.8627 19.8862 19.9122 19.9344 19.9508 19.9623 19.9701 19.9757 19.9805 19.985 19.9898 19.995 20.0006 20.0064 20.0122 20.0178 20.023 20.0278 20.0319 20.0352 20.0378 20.0394 20.0401 20.0399 20.0388 20.0368 20.0341 20.0307 20.0269 20.0229 20.0189 20.0151 20.0115 20.0078 20.0032 19.9959 19.9829 19.9602 19.9231 19.8676 19.7942 19.7126 19.6504 19.6631 19.8436 
20.809 20.3494 20.0753 19.9365 19.8844 19.8806 19.8985 19.9225 19.9448 19.9624 19.9751 19.984 19.9903 19.9951 19.9993 20.0032 20.0071 20.011 20.0148 20.0184 20.0217 20.0245 20.0267 20.0284 20.0293 20.0296 20.0292 20.0281 20.0264 20.0241 20.0214 20.0182 20.0148 20.0114 20.0081 20.0052 20.003 20.0015 20.0005 19.999 19.9954 19.9866 19.968 19.934 19.8789 19.8005 19.7045 19.6138 19.5792 19.691 
20.891 20.4326 20.1429 19.9848 19.9161 19.9004 19.9111 19.9315 19.9524 19.9699 19.9829 19.992 19.9983 20.0027 20.0062 20.0091 20.0117 20.0142 20.0165 20.0185 20.0201 20.0213 20.0221 20.0223 20.022 20.0212 20.0199 20.0181 20.016 20.0136 20.0109 20.008 20.0052 20.0026 20.0003 19.9987 19.998 19.9983 19.9994 20.0006 20.0002 19.9951 19.9804 19.9497 19.8959 19.8139 19.7055 19.588 19.5063 19.546 
20.9511 20.5049 20.2065 20.0325 19.9483 19.9205 19.9231 19.9387 19.9572 19.9736 19.9863 19.9953 20.0013 20.0054 20.0082 20.0103 20.012 20.0135 20.0147 20.0157 20.0164 20.0167 20.0167 20.0162 20.0154 20.0142 20.0128 20.011 20.009 20.0069 20.0046 20.0024 20.0003 19.9985 19.9971 19.9966 19.997 19.9986 20.0013 20.0046 20.0067 20.0049 19.994 19.967 19.9156 19.8319 19.7136 19.5723 19.4455 19.4122 
20.9877 20.5645 20.2642 20.0782 19.98 19.9403 19.9344 19.9445 19.9599 19.9748 19.9868 19.9955 20.0013 20.005 20.0075 20.0091 20.0102 20.0111 20.0117 20.0121 20.0123 20.0123 20.0119 20.0113 20.0104 20.0093 20.0079 20.0064 20.0048 20.0031 20.0014 19.9998 19.9983 19.9972 19.9965 19.9966 19.9978 20.0002 20.004 20.0087 20.013 20.0141 20.0069 19.9842 19.9362 19.853 19.728 19.5664 19.398 19.2929 
21 20.6097 20.3147 20.1208 20.0108 19.9599 19.9452 19.9496 19.9615 19.9745 19.9856 19.9939 19.9996 20.0032 20.0054 20.0068 20.0077 20.0082 20.0086 20.0088 20.0088 20.0086 20.0082 20.0077 20.0069 20.006 20.0049 20.0038 20.0026 20.0014 20.0001 19.999 19.998 19.9973 19.997 19.9975 19.999 20.0019 20.0063 20.012 20.0181 20.0217 20.0184 20.0003 19.9571 19.8764 19.7479 19.5705 19.365 19.191 
20.9877 20.6397 20.3568 20.1596 20.0402 19.9792 19.9562 19.9546 19.9627 19.9736 19.9837 19.9916 19.9971 20.0007 20.003 20.0043 20.0051 20.0056 20.0059 20.006 20.006 20.0059 20.0056 20.0052 20.0047 20.004 20.0033 20.0025 20.0016 20.0007 19.9999 19.9991 19.9984 19.9979 19.9978 19.9984 20 20.003 20.0077 20.0141 20.0215 20.0277 20.028 20.0151 19.9777 19.9017 19.7732 19.5845 19.3473 19.109 
20.9511 20.6537 20.3898 20.194 20.068 19.9983 19.9675 19.9599 19.9642 19.9728 19.9818 19.9892 19.9947 19.9983 20.0006 20.002 20.0029 20.0034 20.0037 20.0039 20.004 20.004 20.0039 20.0037 20.0033 20.0029 20.0024 20.0018 20.0012 20.0006 20 19.9994 19.9989 19.9985 19.9984 19.999 20.0004 20.0033 20.0081 20.015 20.0235 20.0318 20.0359 20.0285 19.9979 19.9286 19.8033 19.6083 19.3453 19.0489 
20.891 20.6515 20.413 20.2233 20.0938 20.0172 19.9792 19.966 19.9663 19.9725 19.9802 19.9871 19.9924 19.9962 19.9986 20.0001 20.0011 20.0017 20.0021 20.0024 20.0026 20.0027 20.0027 20.0026 20.0025 20.0022 20.0019 20.0015 20.0011 20.0007 20.0002 19.9997 19.9992 19.9989 19.9987 19.9991 20.0004 20.003 20.0077 20.0147 20.0241 20.0345 20.0422 20.0404 20.0174 19.9567 19.8378 19.6413 19.3594 19.0123 
20.809 20.6332 20.4259 20.2469 20.1171 20.0354 19.9913 19.9728 19.9692 19.9729 19.9792 19.9854 19.9906 19.9944 19.9969 19.9986 19.9997 20.0005 20.001 20.0013 20.0016 20.0018 20.0019 20.0019 20.0019 20.0018 20.0016 20.0013 20.001 20.0007 20.0003 19.9999 19.9994 19.999 19.9987 19.9989 19.9998 20.0021 20.0065 20.0136 20.0236 20.0357 20.0469 20.0508 20.0361 19.9855 19.8761 19.683 19.3891 19 
20.7071 20.5993 20.4283 20.2645 20.1375 20.0527 20.0036 19.9802 19.9728 19.974 19.9788 19.9843 19.9892 19.993 19.9956 19.9975 19.9987 19.9995 20.0001 20.0005 20.0009 20.0011 20.0013 20.0014 20.0014 20.0014 20.0013 20.0011 20.0009 20.0006 20.0002 19.9998 19.9993 19.9988 19.9984 19.9983 19.9989 20.0009 20.0049 20.0118 20.0222 20.0357 20.0502 20.0598 20.0537 20.0144 19.9172 19.7324 19.4338 19.0123 
20.5878 20.5506 20.4201 20.2755 20.1545 20.0687 20.0158 19.9882 19.9772 19.9759 19.9791 19.9837 19.9882 19.9919 19.9946 19.9966 19.9979 19.9988 19.9994 19.9999 20.0003 20.0006 20.0008 20.001 20.0011 20.0011 20.001 20.0009 20.0007 20.0004 20.0001 19.9997 19.9991 19.9986 19.998 19.9976 19.9979 19.9993 20.0028 20.0094 20.02 20.0347 20.052 20.067 20.0698 20.0429 19.9602 19.7883 19.4924 19.0489 
20.454 20.4884 20.4016 20.2797 20.1677 20.083 20.0277 19.9965 19.9823 19.9784 19.9799 19.9836 19.9877 19.9912 19.9939 19.9959 19.9973 19.9982 19.9989 19.9995 19.9999 20.0002 20.0004 20.0006 20.0007 20.0007 20.0007 20.0006 20.0004 20.0002 19.9999 19.9994 19.9989 19.9982 19.9974 19.9968 19.9967 19.9977 20.0006 20.0067 20.0172 20.0327 20.0524 20.0726 20.0841 20.0702 20.0042 19.8494 19.5635 19.109 
20.309 20.4141 20.3731 20.277 20.1767 20.0953 20.0388 20.0049 19.9877 19.9815 19.9813 19.984 19.9875 19.9907 19.9934 19.9954 19.9968 19.9978 19.9986 19.9991 19.9995 19.9999 20.0001 20.0003 20.0004 20.0004 20.0004 20.0003 20.0001 19.9999 19.9996 19.9991 19.9985 19.9978 19.9969 19.996 19.9955 19.996 19.9983 20.0038 20.0138 20.0298 20.0515 20.0762 20.0963 20.0957 20.048 19.9142 19.6453 19.191 
20.1564 20.3296 20.3355 20.2675 20.1814 20.1052 20.049 20.0131 19.9935 19.985 19.9832 19.9847 19.9876 19.9905 19.9931 19.995 19.9965 19.9975 19.9983 19.9989 19.9993 19.9996 19.9998 20 20.0001 20.0002 20.0001 20.0001 19.9999 19.9997 19.9993 19.9989 19.9982 19.9974 19.9964 19.9953 19.9944 19.9943 19.9959 20.0006 20.0101 20.0261 20.0492 20.078 20.106 20.1189 20.0907 19.981 19.7358 19.2929 
20 20.237 20.2896 20.2513 20.1816 20.1125 20.058 20.0211 19.9994 19.9889 19.9854 19.9859 19.988 19.9906 19.993 19.9949 19.9963 19.9974 19.9981 19.9987 19.9991 19.9994 19.9997 19.9998 19.9999 20 19.9999 19.9999 19.9997 19.9995 19.9991 19.9986 19.998 19.9971 19.9959 19.9946 19.9934 19.9928 19.9936 19.9975 20.0061 20.0217 20.0457 20.0778 20.1131 20.1391 20.131 20.0484 19.8329 19.4122 
19.8436 20.1386 20.2365 20.229 20.1772 20.117 20.0655 20.0284 20.0053 19.993 19.988 19.9873 19.9887 19.9909 19.993 19.9948 19.9962 19.9973 19.998 19.9986 19.999 19.9993 19.9995 19.9997 19.9998 19.9998 19.9998 19.9997 19.9996 19.9993 19.999 19.9985 19.9978 19.9968 19.9956 19.9941 19.9925 19.9914 19.9915 19.9943 20.0019 20.0167 20.0411 20.0757 20.1174 20.1558 20.1682 20.1145 19.934 19.546 
19.691 20.0367 20.1777 20.201 20.1685 20.1186 20.0713 20.035 20.011 19.9972 19.9908 19.989 19.9897 19.9914 19.9932 19.9949 19.9963 19.9973 19.998 19.9986 19.999 19.9993 19.9995 19.9997 19.9998 19.9998 19.9998 19.9997 19.9995 19.9993 19.9989 19.9984 19.9977 19.9967 19.9954 19.9937 19.9918 19.9902 19.9895 19.9913 19.9976 20.0113 20.0354 20.0716 20.1188 20.1687 20.2011 20.1778 20.0368 19.691 
19.546 19.934 20.1144 20.168 20.1556 20.1172 20.0753 20.0407 20.0163 20.0015 19.9939 19.991 19.9909 19.992 19.9936 19.9951 19.9964 19.9974 19.9981 19.9986 19.999 19.9993 19.9996 19.9997 19.9998 19.9999 19.9998 19.9997 19.9995 19.9993 19.9989 19.9984 19.9977 19.9967 19.9953 19.9935 19.9913 19.9892 19.9878 19.9884 19.9934 20.0056 20.0287 20.0658 20.1172 20.1774 20.2291 20.2366 20.1386 19.8436 
19.4122 19.8328 20.0482 20.1309 20.1389 20.1128 20.0775 20.0453 20.0213 20.0056 19.997 19.9931 19.9922 19.9929 19.9941 19.9954 19.9966 19.9975 19.9982 19.9988 19.9992 19.9995 19.9997 19.9999 20 20 19.9999 19.9998 19.9997 19.9994 19.999 19.9985 19.9978 19.9968 19.9953 19.9934 19.9911 19.9885 19.9863 19.9858 19.9893 19.9997 20.0214 20.0583 20.1127 20.1817 20.2515 20.2897 20.2371 20 
19.2929 19.7358 19.9809 20.0905 20.1186 20.1057 20.0776 20.0488 20.0256 20.0096 20.0001 19.9954 19.9937 19.9938 19.9947 19.9958 19.9969 19.9977 19.9984 19.9989 19.9993 19.9996 19.9999 20 20.0001 20.0002 20.0001 20 19.9999 19.9996 19.9992 19.9987 19.998 19.997 19.9955 19.9936 19.991 19.9881 19.9852 19.9836 19.9854 19.9939 20.0135 20.0493 20.1054 20.1816 20.2676 20.3356 20.3297 20.1564 
19.191 19.6452 19.914 20.0478 20.0954 20.0959 20.0758 20.051 20.0292 20.0133 20.0032 19.9977 19.9953 19.9949 19.9954 19.9963 19.9972 19.998 19.9986 19.9991 19.9995 19.9998 20.0001 20.0002 20.0004 20.0004 20.0004 20.0003 20.0001 19.9999 19.9995 19.999 19.9983 19.9973 19.9959 19.9939 19.9913 19.988 19.9845 19.9818 19.9819 19.9881 20.0053 20.0392 20.0956 20.1769 20.2771 20.3732 20.4141 20.309 
19.109 19.5634 19.8492 20.004 20.0699 20.0837 20.0721 20.0519 20.0321 20.0165 20.006 19.9999 19.9969 19.9959 19.9961 19.9967 19.9975 19.9982 19.9988 19.9993 19.9997 20 20.0003 20.0005 20.0006 20.0007 20.0007 20.0006 20.0005 20.0002 19.9999 19.9994 19.9988 19.9978 19.9965 19.9945 19.9918 19.9883 19.9842 19.9805 19.9789 19.9828 19.9969 20.0281 20.0833 20.1679 20.2799 20.4017 20.4884 20.454 
19.0489 19.4923 19.7881 19.96 20.0425 20.0694 20.0665 20.0514 20.034 20.0193 20.0086 20.002 19.9984 19.997 19.9967 19.9971 19.9977 19.9983 19.9989 19.9994 19.9998 20.0001 20.0004 20.0007 20.0008 20.001 20.001 20.001 20.0009 20.0007 20.0004 20 19.9994 19.9985 19.9973 19.9954 19.9927 19.989 19.9845 19.9798 19.9765 19.9779 19.9887 20.0163 20.0691 20.1548 20.2757 20.4203 20.5507 20.5878 
19.0123 19.4337 19.7322 19.9169 20.014 20.0532 20.0591 20.0494 20.0349 20.0213 20.0108 20.0038 19.9998 19.9978 19.9972 19.9973 19.9977 19.9983 19.9988 19.9993 19.9998 20.0002 20.0005 20.0008 20.0011 20.0013 20.0014 20.0015 20.0014 20.0013 20.0011 20.0008 20.0003 19.9995 19.9984 19.9966 19.9939 19.9901 19.9852 19.9797 19.9748 19.9736 19.9809 20.0042 20.0532 20.1379 20.2647 20.4285 20.5994 20.7071 
19 19.389 19.6827 19.8756 19.985 20.0355 20.05 20.046 20.0347 20.0225 20.0124 20.0052 20.0007 19.9984 19.9974 19.9972 19.9975 19.998 19.9985 19.9991 19.9996 20.0001 20.0006 20.001 20.0014 20.0017 20.002 20.0021 20.0022 20.0022 20.0021 20.0019 20.0015 20.0008 19.9998 19.9981 19.9956 19.9918 19.9866 19.9803 19.9739 19.9701 19.9736 19.992 20.0359 20.1175 20.2472 20.4261 20.6333 20.809 
19.0123 19.3592 19.6409 19.8372 19.9559 20.0165 20.0392 20.0409 20.033 20.0226 20.0131 20.0059 20.0012 19.9985 19.9972 19.9969 19.997 19.9975 19.9981 19.9987 19.9994 20 20.0007 20.0013 20.0019 20.0024 20.0028 20.0031 20.0034 20.0035 20.0035 20.0034 20.0031 20.0026 20.0017 20.0002 19.9977 19.9939 19.9885 19.9815 19.9737 19.9673 19.9668 19.9799 20.0176 20.0942 20.2235 20.4132 20.6515 20.891 
19.0489 19.345 19.6076 19.8023 19.9274 19.9964 20.0267 20.034 20.0298 20.0213 20.0127 20.0057 20.0009 19.998 19.9965 19.9961 19.9962 19.9968 19.9975 19.9983 19.9992 20.0001 20.001 20.0019 20.0027 20.0035 20.0042 20.0047 20.0051 20.0054 20.0055 20.0055 20.0053 20.0048 20.004 20.0026 20.0002 19.9964 19.9908 19.9832 19.974 19.9651 19.9607 19.968 19.9987 20.0682 20.194 20.3899 20.6537 20.9511 
19.109 19.3467 19.5834 19.7716 19.8998 19.9753 20.0125 20.0252 20.0247 20.0184 20.011 20.0045 19.9998 19.9969 19.9954 19.995 19.9953 19.9961 19.9971 19.9982 19.9995 20.0007 20.002 20.0032 20.0044 20.0055 20.0064 20.0071 20.0077 20.0081 20.0082 20.0082 20.008 20.0075 20.0067 20.0053 20.0029 19.999 19.9932 19.985 19.9745 19.9633 19.9549 19.9562 19.979 20.0399 20.1593 20.3566 20.6395 20.9877 
19.191 19.3641 19.5688 19.7455 19.8734 19.9536 19.9964 20.0143 20.0175 20.0138 20.0079 20.0022 19.998 19.9954 19.9942 19.9941 19.9947 19.9959 19.9974 19.999 20.0007 20.0025 20.0042 20.0059 20.0074 20.0087 20.0099 20.0107 20.0114 20.0117 20.0118 20.0116 20.0112 20.0105 20.0094 20.0078 20.0052 20.0011 19.995 19.9863 19.9747 19.9612 19.9489 19.9443 19.9588 20.0097 20.1198 20.314 20.6093 21 
19.2929 19.3968 19.564 19.7245 19.8486 19.9312 19.9788 20.0013 20.0085 20.0076 20.0036 19.9993 19.9959 19.994 19.9935 19.994 19.9953 19.9971 19.9993 20.0016 20.0039 20.0062 20.0084 20.0104 20.0122 20.0137 20.0149 20.0157 20.0161 20.0162 20.0159 20.0152 20.0143 20.013 20.0114 20.0093 20.0062 20.0018 19.9953 19.986 19.9734 19.958 19.9422 19.9318 19.9377 19.9776 20.0762 20.2628 20.5637 20.9877 
19.4122 19.4438 19.569 19.7089 19.8261 19.9091 19.9601 19.987 19.9982 20.0006 19.999 19.9966 19.9948 19.9941 19.9946 19.9962 19.9985 20.0012 20.0042 20.0072 20.0102 20.013 20.0155 20.0176 20.0194 20.0207 20.0215 20.0218 20.0216 20.0208 20.0196 20.018 20.0161 20.0138 20.0113 20.0083 20.0046 19.9996 19.9927 19.9829 19.9695 19.9525 19.9338 19.9181 19.9158 19.9442 20.0293 20.2043 20.5038 20.9511 
19.546 19.5042 19.5841 19.6999 19.8071 19.8884 19.9419 19.9729 19.9883 19.9944 19.9961 19.9963 19.9966 19.9977 19.9999 20.0028 20.0063 20.01 20.0138 20.0174 20.0207 20.0236 20.0259 20.0276 20.0287 20.0292 20.0289 20.0279 20.0263 20.024 20.0212 20.018 20.0145 20.0107 20.0068 20.0027 19.998 19.9925 19.9852 19.9752 19.9616 19.9439 19.923 19.9031 19.8933 19.9103 19.9804 20.1401 20.4312 20.891 
19.691 19.5772 19.61 19.6991 19.794 19.872 19.9272 19.962 19.982 19.9926 19.9981 20.0016 20.0047 20.0082 20.0122 20.0166 20.0212 20.0256 20.0297 20.0333 20.0362 20.0382 20.0394 20.0396 20.0389 20.0373 20.0348 20.0315 20.0274 20.0226 20.0174 20.0119 20.0062 20.0005 19.995 19.9896 19.9841 19.9782 19.9711 19.9617 19.9489 19.9316 19.9102 19.8876 19.8717 19.8778 19.9322 20.0729 20.3485 20.809 
19.8436 19.6622 19.6486 19.71 19.7912 19.8648 19.9211 19.9598 19.9847 20.0002 20.0102 20.0175 20.0237 20.0295 20.0352 20.0405 20.0454 20.0496 20.0528 20.0549 20.0558 20.0554 20.0536 20.0506 20.0464 20.0411 20.0348 20.0277 20.0199 20.0116 20.0032 19.9948 19.9866 19.979 19.9721 19.966 19.9605 19.9553 19.9496 19.9423 19.9319 19.9171 19.8974 19.8744 19.8544 19.8511 19.8891 20.0074 20.2592 20.7071 
20 19.7597 19.7036 19.7385 19.8059 19.8748 19.9319 19.9744 20.0041 20.0247 20.0391 20.05 20.0587 20.0659 20.0719 20.0766 20.0799 20.0815 20.0814 20.0795 20.0757 20.0702 20.063 20.0543 20.0442 20.0332 20.0213 20.0089 19.9964 19.9839 19.972 19.9608 19.9508 19.9422 19.9352 19.93 19.9264 19.924 19.9221 19.9194 19.9143 19.905 19.8901 19.87 19.8489 19.8379 19.8592 19.9509 20.1692 20.5878 
20.1564 19.8715 19.7813 19.7938 19.8492 19.9135 19.9711 20.0166 20.0504 20.0748 20.0923 20.1048 20.1137 20.1196 20.1228 20.1234 20.1213 20.1166 20.1091 20.0992 20.0869 20.0726 20.0565 20.0391 20.0208 20.0019 19.9831 19.9647 19.9471 19.931 19.9166 19.9043 19.8946 19.8876 19.8837 19.8828 19.8848 19.8891 19.895 19.901 19.9052 19.9054 19.8994 19.8861 19.8674 19.8512 19.8557 19.9153 20.087 20.454 
20.309 20.0017 19.8915 19.8894 19.9359 19.996 20.0526 20.0989 20.1338 20.1585 20.1749 20.1845 20.1885 20.1877 20.1823 20.1728 20.1593 20.1421 20.1216 20.0982 20.0726 20.0452 20.0167 19.9879 19.9594 19.9319 19.9061 19.8826 19.8621 19.845 19.8318 19.8228 19.8183 19.8185 19.8233 19.8327 19.8462 19.8632 19.8825 19.9026 19.9212 19.9357 19.9432 19.9411 19.9289 19.9102 19.8976 19.9187 20.026 20.309 
20.454 20.1577 20.0487 20.0427 20.0837 20.1385 20.1902 20.2316 20.2607 20.2781 20.2852 20.2831 20.2732 20.2563 20.2332 20.2045 20.171 20.1334 20.0928 20.0499 20.0059 19.9618 19.9187 19.8776 19.8396 19.8055 19.7762 19.7525 19.7348 19.7237 19.7195 19.7223 19.732 19.7485 19.7713 19.7999 19.8335 19.871 19.9108 19.9511 19.9893 20.0225 20.0471 20.0596 20.057 20.0387 20.0096 19.9859 20.0066 20.1564 
20.5878 20.3516 20.2713 20.2728 20.3092 20.3531 20.3905 20.4153 20.4257 20.4221 20.4056 20.3777 20.3398 20.2933 20.2396 20.1801 20.1164 20.0499 19.9823 19.9152 19.8502 19.789 19.7329 19.6835 19.6419 19.6091 19.586 19.573 19.5706 19.5788 19.5974 19.6259 19.6638 19.71 19.7635 19.823 19.8868 19.9533 20.0204 20.0857 20.1465 20.1997 20.2416 20.2682 20.2754 20.2591 20.2163 20.1474 20.0625 20 
20.7071 20.6035 20.5795 20.5938 20.618 20.6364 20.641 20.6286 20.5987 20.5523 20.491 20.4169 20.3322 20.2391 20.1402 20.0379 19.9347 19.8332 19.7358 19.645 19.563 19.4917 19.433 19.3882 19.3585 19.3446 19.3469 19.3652 19.3992 19.448 19.5104 19.5849 19.6696 19.7626 19.8614 19.9637 20.067 20.1685 20.2656 20.3554 20.4353 20.5022 20.5532 20.5851 20.5943 20.5766 20.5254 20.4282 20.2539 19.8436 
20.809 20.9511 20.9877 21 20.9877 20.9511 20.891 20.809 20.7071 20.5878 20.454 20.309 20.1564 20 19.8436 19.691 19.546 19.4122 19.2929 19.191 19.109 19.0489 19.0123 19 19.0123 19.0489 19.109 19.191 19.2929 19.4122 19.546 19.691 19.8436 20 20.1564 20.309 20.454 20.5878 20.7071 20.809 20.891 20.9511 20.9877 21 20.9877 20.9511 20.891 20.809 20.7071 19.691 
