# vtk DataFile Version 3.0
Temperature distribution on a 2D grid
ASCII

DATASET STRUCTURED_POINTS
DIMENSIONS 50 50 1
ORIGIN 0.0 0.0 0.0
SPACING 0.01 0.01 1.0

POINT_DATA 2500
SCALARS temperature double
LOOKUP_TABLE default
19.3626 20.509 20.3681 20.2181 20.0628 19.9059 19.7513 19.6029 19.4642 19.3387 19.2295 19.1393 19.0702 19.0241 19.002 19.0044 19.0314 19.0822 19.1557 19.2499 19.3626 19.491 19.6319 19.7819 19.9372 20.0941 20.2487 20.3971 20.5358 20.6613 20.7705 20.8607 20.9298 20.9759 20.998 20.9956 20.9686 20.9178 20.8443 20.7501 20.6374 20.509 20.3681 20.2181 20.0628 19.9059 19.7513 19.6029 19.4642 19.2295 
19.2499 19.8202 19.9232 19.8965 19.8212 19.7302 19.6385 19.5541 19.4812 19.4225 19.3794 19.3528 19.343 19.35 19.3733 19.4123 19.4658 19.5325 19.6107 19.6984 19.7936 19.8939 19.9968 20.0997 20.2002 20.2957 20.384 20.4628 20.5303 20.5846 20.6246 20.6492 20.6578 20.6502 20.6266 20.5876 20.5342 20.4679 20.3904 20.3036 20.2098 20.111 20.0088 19.9042 19.7969 19.6848 19.5647 19.433 19.2904 19.1393 
19.1557 19.5648 19.7347 19.7803 19.765 19.7244 19.6778 19.6357 19.6032 19.5829 19.5754 19.5804 19.5975 19.6256 19.6636 19.7102 19.7641 19.824 19.8881 19.955 20.0229 20.0903 20.1554 20.2167 20.2727 20.3219 20.3633 20.3957 20.4183 20.4306 20.4324 20.4235 20.4041 20.3748 20.3362 20.2895 20.2358 20.1767 20.1139 20.049 19.9838 19.9194 19.8561 19.7924 19.7244 19.6451 19.5447 19.4134 19.2487 19.0702 
19.0822 19.4582 19.6677 19.7641 19.7938 19.7899 19.7733 19.7564 19.7455 19.7434 19.7508 19.7672 19.7915 19.8224 19.8587 19.8989 19.9419 19.9865 20.0313 20.0754 20.1176 20.1568 20.1922 20.2228 20.2479 20.2669 20.2794 20.285 20.2835 20.2751 20.2599 20.2383 20.2108 20.1781 20.141 20.1006 20.058 20.0144 19.9714 19.9303 19.8923 19.8578 19.826 19.7937 19.7542 19.6965 19.6054 19.4646 19.2657 19.0241 
19.0314 19.4049 19.6459 19.7811 19.8452 19.8681 19.8711 19.8682 19.8669 19.8709 19.8813 19.8977 19.9192 19.9445 19.9722 20.0014 20.0308 20.0596 20.0869 20.112 20.1344 20.1534 20.1685 20.1795 20.1861 20.1882 20.1856 20.1784 20.1668 20.1512 20.1318 20.1091 20.0837 20.0562 20.0274 19.998 19.969 19.9414 19.9164 19.8951 19.8782 19.866 19.8568 19.8464 19.8263 19.7827 19.696 19.5443 19.3111 19.002 
19.0044 19.3725 19.6345 19.7983 19.8884 19.9309 19.9471 19.9516 19.9536 19.9576 19.9653 19.977 19.9919 20.009 20.0271 20.0453 20.0628 20.0789 20.093 20.1049 20.114 20.1204 20.1237 20.124 20.1212 20.1155 20.1069 20.0957 20.0821 20.0666 20.0493 20.0309 20.0116 19.992 19.9725 19.9539 19.9368 19.922 19.9104 19.9031 19.9007 19.9031 19.9088 19.9129 19.9061 19.8729 19.7904 19.6315 19.3717 19.0044 
19.002 19.3514 19.6215 19.8039 19.9127 19.9698 19.9952 20.0042 20.0067 20.0085 20.0119 20.0179 20.0259 20.0353 20.0453 20.0549 20.0636 20.0709 20.0765 20.0802 20.0819 20.0815 20.0791 20.0747 20.0684 20.0605 20.0511 20.0405 20.0288 20.0165 20.0037 19.9909 19.9781 19.9659 19.9544 19.9442 19.9357 19.9296 19.9267 19.928 19.9342 19.9454 19.9601 19.9737 19.9768 19.9528 19.877 19.7176 19.4422 19.0314 
19.0241 19.34 19.6057 19.7971 19.9184 19.9862 20.0188 20.0311 20.0337 20.0331 20.0327 20.0337 20.0362 20.0398 20.0438 20.0476 20.0507 20.0528 20.0536 20.0531 20.0513 20.0481 20.0437 20.0382 20.0318 20.0246 20.0168 20.0086 20.0002 19.9918 19.9836 19.9757 19.9684 19.9617 19.9559 19.9513 19.9482 19.9472 19.9491 19.9548 19.9653 19.981 20.0009 20.0209 20.0321 20.0179 19.9522 19.7997 19.5207 19.0822 
19.0702 19.3396 19.5897 19.7818 19.9102 19.9859 20.0243 20.0398 20.043 20.0411 20.038 20.0355 20.0343 20.034 20.0343 20.0347 20.0347 20.0341 20.0327 20.0306 20.0276 20.024 20.0197 20.0149 20.0097 20.0043 19.9988 19.9934 19.9881 19.9831 19.9785 19.9744 19.9709 19.9679 19.9656 19.9642 19.9639 19.9653 19.9691 19.9764 19.9884 20.0059 20.0287 20.0534 20.072 20.0685 20.0164 19.8778 19.6061 19.1557 
19.1393 19.3518 19.577 19.7628 19.8939 19.975 20.0185 20.0372 20.0419 20.0397 20.0353 20.031 20.0275 20.025 20.0233 20.0219 20.0206 20.019 20.017 20.0147 20.0119 20.0089 20.0055 20.002 19.9985 19.995 19.9917 19.9885 19.9857 19.9832 19.9811 19.9794 19.9782 19.9773 19.9768 19.9768 19.9776 19.9796 19.9836 19.9908 20.0026 20.0205 20.0446 20.073 20.0987 20.1069 20.0713 19.9523 19.6977 19.2499 
19.2295 19.3778 19.5708 19.7444 19.8742 19.9587 20.0065 20.0287 20.0355 20.0342 20.0296 20.0245 20.0201 20.0166 20.014 20.012 20.0102 20.0085 20.0068 20.0049 20.0029 20.0007 19.9986 19.9964 19.9943 19.9924 19.9907 19.9892 19.988 19.9871 19.9865 19.9861 19.986 19.9861 19.9863 19.9867 19.9875 19.9892 19.9924 19.9986 20.0094 20.0267 20.0514 20.0828 20.1152 20.1356 20.1186 20.0238 19.7946 19.3626 
19.3387 19.4181 19.573 19.7296 19.8548 19.9407 19.992 20.0177 20.0271 20.0274 20.0236 20.0186 20.014 20.0102 20.0074 20.0053 20.0037 20.0023 20.001 19.9998 19.9985 19.9973 19.9961 19.995 19.994 19.9932 19.9925 19.992 19.9918 19.9917 19.9919 19.9922 19.9925 19.9929 19.9932 19.9934 19.9937 19.9945 19.9967 20.0015 20.0108 20.0269 20.0517 20.0854 20.1242 20.1567 20.1595 20.0923 19.8953 19.491 
19.4642 19.4721 19.5849 19.7205 19.8379 19.9233 19.9772 20.0062 20.0185 20.0208 20.0183 20.014 20.0097 20.0061 20.0034 20.0015 20.0001 19.9991 19.9984 19.9977 19.9971 19.9966 19.9961 19.9957 19.9954 19.9952 19.9952 19.9952 19.9955 19.9958 19.9962 19.9967 19.9971 19.9974 19.9974 19.9972 19.9969 19.9968 19.9978 20.0011 20.0088 20.0235 20.0478 20.0832 20.1276 20.1719 20.1947 20.1572 19.9979 19.6319 
19.6029 19.5391 19.6069 19.718 19.8249 19.9079 19.9633 19.9953 20.0104 20.015 20.014 20.0107 20.007 20.0038 20.0014 19.9997 19.9986 19.998 19.9976 19.9973 19.9972 19.9971 19.9971 19.9971 19.9972 19.9974 19.9976 19.9979 19.9983 19.9987 19.9991 19.9996 19.9999 19.9999 19.9997 19.9991 19.9982 19.9973 19.997 19.9989 20.0049 20.018 20.0414 20.0778 20.1268 20.1819 20.2245 20.2178 20.1003 19.7819 
19.7513 19.6174 19.6386 19.7227 19.8166 19.8953 19.951 19.9853 20.0031 20.01 20.0107 20.0086 20.0055 20.0027 20.0006 19.9991 19.9983 19.9979 19.9977 19.9978 19.9979 19.9981 19.9983 19.9985 19.9988 19.9991 19.9994 19.9997 20.0001 20.0005 20.0008 20.0011 20.0013 20.0012 20.0007 19.9997 19.9983 19.9967 19.9955 19.996 20.0003 20.0116 20.0336 20.0702 20.1227 20.1873 20.2486 20.2729 20.2001 19.9372 
19.9059 19.7053 19.6793 19.7344 19.8131 19.8857 19.9406 19.9764 19.9965 20.0056 20.008 20.007 20.0048 20.0024 20.0005 19.9993 19.9986 19.9983 19.9983 19.9984 19.9987 19.999 19.9993 19.9996 19.9999 20.0002 20.0005 20.0008 20.0011 20.0014 20.0016 20.0018 20.0018 20.0016 20.0009 19.9997 19.998 19.9958 19.9937 19.993 19.9956 20.0049 20.0251 20.061 20.1158 20.1882 20.2667 20.3215 20.2952 20.0941 
20.0628 19.8004 19.7282 19.753 19.8146 19.8794 19.932 19.9685 19.9905 20.0015 20.0056 20.0058 20.0043 20.0024 20.0008 19.9997 19.999 19.9988 19.9988 19.999 19.9993 19.9997 20 20.0003 20.0006 20.0008 20.0011 20.0013 20.0015 20.0017 20.0018 20.0019 20.0019 20.0015 20.0008 19.9995 19.9975 19.995 19.9922 19.9903 19.9912 19.9983 20.0163 20.0506 20.1063 20.1848 20.2785 20.3622 20.383 20.2487 
20.2181 19.9006 19.7838 19.7778 19.8209 19.8763 19.9255 19.9618 19.985 19.9977 20.0033 20.0047 20.004 20.0025 20.0011 20.0001 19.9995 19.9992 19.9993 19.9995 19.9997 20 20.0003 20.0006 20.0008 20.001 20.0012 20.0014 20.0015 20.0016 20.0017 20.0017 20.0016 20.0013 20.0006 19.9993 19.9972 19.9944 19.991 19.988 19.9873 19.9921 20.0073 20.0393 20.0945 20.1771 20.2836 20.3942 20.4615 20.3971 
20.3681 20.0032 19.8449 19.8082 19.8318 19.8764 19.9209 19.9561 19.9801 19.9941 20.0011 20.0035 20.0035 20.0025 20.0014 20.0004 19.9998 19.9996 19.9996 19.9997 19.9999 20.0002 20.0004 20.0007 20.0009 20.001 20.0011 20.0012 20.0013 20.0014 20.0014 20.0015 20.0014 20.0011 20.0004 19.9991 19.9971 19.994 19.9902 19.9863 19.984 19.9864 19.9985 20.0272 20.0806 20.1653 20.2819 20.4167 20.5286 20.5358 
20.509 20.1058 19.9098 19.8434 19.8468 19.8796 19.9183 19.9516 19.9756 19.9907 19.9988 20.0022 20.0029 20.0024 20.0015 20.0007 20.0001 19.9998 19.9997 19.9998 20 20.0002 20.0004 20.0006 20.0007 20.0008 20.0009 20.001 20.001 20.0011 20.0011 20.0011 20.0011 20.0009 20.0003 19.9991 19.9971 19.994 19.9899 19.9851 19.9812 19.9812 19.9899 20.0147 20.0649 20.1495 20.2734 20.4289 20.5828 20.6613 
20.6374 20.2058 19.9769 19.8824 19.8656 19.8858 19.9178 19.9483 19.9718 19.9874 19.9965 20.0008 20.0022 20.0022 20.0015 20.0008 20.0002 19.9999 19.9998 19.9998 19.9999 20.0001 20.0003 20.0004 20.0005 20.0006 20.0007 20.0007 20.0007 20.0008 20.0008 20.0009 20.0009 20.0007 20.0003 19.9992 19.9974 19.9943 19.9899 19.9844 19.9791 19.9765 19.9816 20.0019 20.0476 20.1301 20.2583 20.4306 20.6227 20.7705 
20.7501 20.3007 20.0446 19.9244 19.8877 19.8947 19.9192 19.9462 19.9686 19.9845 19.9942 19.9993 20.0014 20.0018 20.0014 20.0008 20.0003 19.9999 19.9998 19.9998 19.9999 20 20.0001 20.0003 20.0004 20.0004 20.0004 20.0005 20.0005 20.0005 20.0006 20.0006 20.0007 20.0006 20.0003 19.9995 19.9977 19.9947 19.9902 19.9841 19.9775 19.9725 19.9739 19.9892 20.0293 20.1076 20.2368 20.4218 20.6473 20.8607 
20.8443 20.3882 20.1112 19.9681 19.9125 19.9063 19.9226 19.9454 19.9661 19.9818 19.992 19.9978 20.0005 20.0013 20.0012 20.0007 20.0003 19.9999 19.9998 19.9997 19.9998 19.9999 20 20.0001 20.0002 20.0002 20.0003 20.0003 20.0003 20.0003 20.0004 20.0005 20.0006 20.0006 20.0004 19.9997 19.9982 19.9954 19.9908 19.9843 19.9764 19.9692 19.9668 19.9767 20.0102 20.0824 20.2095 20.4025 20.6559 20.9298 
20.9178 20.4661 20.175 20.0127 19.9395 19.9201 19.9279 19.9458 19.9645 19.9795 19.99 19.9963 19.9995 20.0007 20.0009 20.0006 20.0002 19.9999 19.9997 19.9997 19.9997 19.9998 19.9999 20 20 20.0001 20.0001 20.0001 20.0001 20.0001 20.0002 20.0003 20.0005 20.0006 20.0005 20.0001 19.9988 19.9961 19.9916 19.9848 19.976 19.9667 19.9605 19.9648 19.9909 20.0552 20.177 20.3734 20.6483 20.9759 
20.9686 20.5325 20.2345 20.0569 19.9679 19.9358 19.9349 19.9476 19.9636 19.9777 19.9881 19.9948 19.9985 20.0001 20.0006 20.0005 20.0002 19.9999 19.9997 19.9997 19.9997 19.9997 19.9998 19.9999 20 20 20 20 20 20 20.0001 20.0002 20.0004 20.0006 20.0007 20.0004 19.9993 19.997 19.9927 19.9857 19.9762 19.9649 19.9552 19.9537 19.9718 20.0266 20.1401 20.335 20.6248 20.998 
20.9956 20.5859 20.2883 20.0996 19.9971 19.9531 19.9434 19.9506 19.9636 19.9764 19.9865 19.9934 19.9975 19.9995 20.0003 20.0004 20.0002 19.9999 19.9998 19.9997 19.9997 19.9997 19.9998 19.9999 19.9999 20 20 20 19.9999 20 20 20.0001 20.0003 20.0006 20.0008 20.0007 20 19.9979 19.9939 19.987 19.9769 19.964 19.951 19.9438 19.9534 19.9974 20.0998 20.2884 20.5859 20.9956 
20.998 20.6248 20.3349 20.1399 20.0264 19.9715 19.9534 19.9548 19.9645 19.9757 19.9853 19.9922 19.9965 19.9989 19.9999 20.0002 20.0001 20 19.9998 19.9998 19.9997 19.9998 19.9998 19.9999 20 20 20 20 19.9999 19.9999 20 20.0001 20.0003 20.0006 20.0009 20.001 20.0006 19.9989 19.9952 19.9885 19.9781 19.964 19.9479 19.9352 19.9361 19.9682 20.057 20.2346 20.5326 20.9686 
20.9759 20.6483 20.3732 20.1768 20.055 19.9906 19.9644 19.9601 19.9662 19.9755 19.9843 19.9911 19.9956 19.9982 19.9996 20.0001 20.0001 20 19.9999 19.9999 19.9999 19.9999 19.9999 20 20 20.0001 20.0001 20 20 19.9999 20 20.0001 20.0003 20.0006 20.001 20.0013 20.0011 19.9999 19.9966 19.9903 19.9799 19.9648 19.9461 19.9281 19.9203 19.9397 20.0128 20.1751 20.4661 20.9178 
20.9298 20.6558 20.4024 20.2092 20.0822 20.0099 19.9763 19.9664 19.9688 19.9759 19.9838 19.9902 19.9948 19.9977 19.9992 19.9999 20.0001 20.0001 20.0001 20 20 20 20.0001 20.0001 20.0002 20.0002 20.0002 20.0001 20 20 20 20 20.0002 20.0006 20.0011 20.0015 20.0016 20.0008 19.9981 19.9923 19.9821 19.9664 19.9456 19.9229 19.9065 19.9127 19.9682 20.1113 20.3882 20.8443 
20.8607 20.6472 20.4216 20.2366 20.1073 20.029 19.9888 19.9735 19.9721 19.977 19.9836 19.9897 19.9942 19.9972 19.999 19.9998 20.0002 20.0003 20.0003 20.0002 20.0002 20.0003 20.0003 20.0003 20.0004 20.0003 20.0003 20.0002 20.0001 20 20 20 20.0002 20.0005 20.0011 20.0017 20.0021 20.0017 19.9996 19.9945 19.9847 19.9689 19.9464 19.9194 19.8949 19.8878 19.9245 20.0447 20.3007 20.7501 
20.7705 20.6226 20.4305 20.2581 20.1299 20.0473 20.0016 19.9812 19.9761 19.9786 19.9839 19.9894 19.9938 19.9969 19.9988 19.9998 20.0003 20.0005 20.0005 20.0005 20.0005 20.0005 20.0005 20.0006 20.0005 20.0005 20.0004 20.0003 20.0002 20 19.9999 19.9999 20.0001 20.0004 20.001 20.0017 20.0024 20.0025 20.001 19.9967 19.9877 19.972 19.9485 19.918 19.8859 19.8657 19.8825 19.977 20.2058 20.6374 
20.6613 20.5828 20.4288 20.2733 20.1493 20.0646 20.0144 19.9896 19.9808 19.9809 19.9847 19.9895 19.9936 19.9967 19.9987 19.9999 20.0005 20.0008 20.0008 20.0008 20.0008 20.0008 20.0008 20.0008 20.0007 20.0006 20.0005 20.0003 20.0002 20 19.9998 19.9997 19.9998 20.0001 20.0007 20.0016 20.0025 20.0031 20.0024 19.9989 19.9909 19.9758 19.9518 19.9185 19.8798 19.8469 19.8435 19.9099 20.1058 20.509 
20.5358 20.5286 20.4166 20.2819 20.1652 20.0805 20.0271 19.9983 19.9862 19.9838 19.9861 19.99 19.9938 19.9968 19.9988 20.0001 20.0008 20.0011 20.0012 20.0011 20.0011 20.001 20.0009 20.0009 20.0007 20.0006 20.0004 20.0002 20 19.9998 19.9995 19.9994 19.9995 19.9998 20.0004 20.0014 20.0026 20.0036 20.0036 20.0012 19.9943 19.9802 19.9563 19.9211 19.8766 19.8319 19.8084 19.845 20.0033 20.3681 
20.3971 20.4615 20.3943 20.2837 20.1772 20.0946 20.0393 20.0074 19.9922 19.9873 19.988 19.9909 19.9942 19.997 19.9991 20.0003 20.001 20.0013 20.0014 20.0013 20.0012 20.0011 20.0009 20.0007 20.0006 20.0004 20.0001 19.9999 19.9996 19.9993 19.9991 19.9989 19.9989 19.9992 19.9999 20.001 20.0025 20.004 20.0048 20.0035 19.998 19.9853 19.9621 19.9258 19.8766 19.8212 19.7781 19.784 19.9007 20.2181 
20.2487 20.3831 20.3624 20.2788 20.1852 20.1067 20.051 20.0167 19.9987 19.9915 19.9905 19.9923 19.995 19.9975 19.9994 20.0006 20.0012 20.0014 20.0014 20.0013 20.001 20.0008 20.0005 20.0003 20 19.9997 19.9995 19.9992 19.9989 19.9986 19.9984 19.9982 19.9983 19.9986 19.9994 20.0006 20.0024 20.0044 20.006 20.0059 20.002 19.991 19.9691 19.9326 19.8799 19.8151 19.7534 19.7285 19.8006 20.0628 
20.0941 20.2954 20.3219 20.2672 20.1889 20.1166 20.0618 20.0259 20.0056 19.9962 19.9934 19.994 19.9959 19.9979 19.9995 20.0005 20.001 20.0011 20.0009 20.0006 20.0003 19.9999 19.9995 19.9992 19.9989 19.9986 19.9983 19.9981 19.9978 19.9977 19.9975 19.9975 19.9977 19.9982 19.9991 20.0005 20.0026 20.0051 20.0076 20.0087 20.0064 19.9974 19.9774 19.9416 19.8866 19.8139 19.7351 19.6798 19.7055 19.9059 
19.9372 20.2005 20.2735 20.2494 20.1883 20.1239 20.0713 20.0347 20.0125 20.0011 19.9965 19.9957 19.9967 19.998 19.9991 19.9998 20 19.9999 19.9995 19.9991 19.9986 19.9981 19.9977 19.9973 19.9971 19.9969 19.9967 19.9966 19.9966 19.9967 19.9968 19.997 19.9974 19.9981 19.9993 20.001 20.0035 20.0066 20.0098 20.0122 20.0116 20.0047 19.9869 19.9526 19.8967 19.8178 19.7236 19.6392 19.6177 19.7513 
19.7819 20.1006 20.2185 20.2254 20.1831 20.1281 20.0791 20.0426 20.0189 20.0055 19.9991 19.9968 19.9966 19.9971 19.9976 19.9978 19.9977 19.9973 19.9968 19.9962 19.9957 19.9952 19.9949 19.9947 19.9946 19.9947 19.9949 19.9952 19.9956 19.9961 19.9966 19.9973 19.9981 19.9992 20.0007 20.0028 20.0056 20.0092 20.0132 20.0166 20.0177 20.0131 19.9978 19.9656 19.9099 19.8265 19.7192 19.6076 19.5395 19.6029 
19.6319 19.9981 20.1577 20.1955 20.1727 20.1285 20.084 20.0483 20.0236 20.0084 20.0002 19.9963 19.9947 19.9943 19.9941 19.9938 19.9934 19.9929 19.9923 19.9918 19.9914 19.9912 19.9912 19.9915 19.992 19.9927 19.9935 19.9945 19.9956 19.9968 19.998 19.9993 20.0007 20.0023 20.0042 20.0066 20.0097 20.0135 20.018 20.0224 20.0249 20.0223 20.0097 19.9801 19.9256 19.8396 19.7216 19.5856 19.4725 19.4642 
19.491 19.8952 20.0921 20.1592 20.1563 20.1236 20.0845 20.0504 20.025 20.0083 19.9982 19.9927 19.9899 19.9884 19.9876 19.987 19.9865 19.9861 19.9858 19.9858 19.986 19.9866 19.9875 19.9887 19.9902 19.9919 19.9938 19.9959 19.9981 20.0002 20.0024 20.0044 20.0064 20.0085 20.0106 20.0131 20.0162 20.0201 20.0247 20.0294 20.0328 20.0318 20.0217 19.995 19.9427 19.8559 19.7301 19.5731 19.418 19.3387 
19.3626 19.7936 20.0219 20.1159 20.1322 20.1113 20.0782 20.0462 20.0208 20.0028 19.9913 19.9844 19.9805 19.9784 19.9774 19.9769 19.9769 19.9772 19.978 19.9791 19.9807 19.9828 19.9852 19.9881 19.9912 19.9946 19.9981 20.0016 20.0051 20.0084 20.0114 20.0142 20.0166 20.0188 20.0209 20.023 20.0255 20.0286 20.0325 20.0367 20.0402 20.0401 20.0319 20.0081 19.9589 19.8733 19.7428 19.5692 19.3769 19.2295 
19.2499 19.695 19.9471 20.064 20.098 20.0886 20.062 20.0329 20.008 19.9896 19.9773 19.9698 19.9656 19.9638 19.9635 19.9642 19.9657 19.9678 19.9707 19.9741 19.9782 19.9827 19.9877 19.9929 19.9984 20.0039 20.0093 20.0144 20.0192 20.0235 20.0271 20.0301 20.0323 20.0339 20.0349 20.0356 20.0364 20.0376 20.0395 20.042 20.0443 20.0441 20.037 20.0159 19.9705 19.888 19.7567 19.572 19.3489 19.1393 
19.1557 19.6003 19.8669 20.0014 20.0505 20.052 20.0322 20.0069 19.984 19.9665 19.9549 19.9483 19.9455 19.9455 19.9476 19.9512 19.9559 19.9616 19.9682 19.9754 19.9832 19.9914 19.9998 20.0082 20.0164 20.0242 20.0314 20.0378 20.0433 20.0476 20.0508 20.0526 20.0532 20.0526 20.0509 20.0485 20.0458 20.0434 20.0416 20.0407 20.0403 20.0386 20.0317 20.013 19.9721 19.8952 19.7675 19.5785 19.3333 19.0702 
19.0822 19.5103 19.7802 19.9255 19.9864 19.998 19.9857 19.9659 19.9471 19.9332 19.9249 19.922 19.9233 19.9279 19.935 19.944 19.9544 19.9658 19.978 19.9906 20.0035 20.0162 20.0285 20.0401 20.0508 20.0602 20.0681 20.0743 20.0787 20.0811 20.0814 20.0798 20.0761 20.0706 20.0637 20.0556 20.0471 20.0387 20.0312 20.0251 20.0204 20.0159 20.0084 19.9921 19.9568 19.8885 19.7699 19.5849 19.3286 19.0241 
19.0314 19.4254 19.6861 19.8346 19.9037 19.9248 19.9218 19.9105 19.8997 19.8934 19.8928 19.8977 19.9072 19.9203 19.936 19.9536 19.9724 19.9919 20.0114 20.0307 20.0491 20.0663 20.0819 20.0954 20.1066 20.1152 20.1209 20.1237 20.1234 20.12 20.1137 20.1044 20.0926 20.0786 20.0628 20.046 20.0287 20.0121 19.9969 19.9842 19.9741 19.9663 19.9583 19.9451 19.9177 19.8619 19.759 19.5878 19.3334 19.002 
19.0044 19.3469 19.5856 19.7297 19.8043 19.8358 19.8457 19.848 19.8511 19.8586 19.8719 19.8906 19.9136 19.9399 19.9683 19.9977 20.0273 20.0562 20.0836 20.109 20.1316 20.151 20.1666 20.1781 20.1853 20.1879 20.1859 20.1793 20.1683 20.153 20.134 20.1117 20.0865 20.0593 20.0308 20.0019 19.9737 19.9472 19.9237 19.9043 19.8898 19.88 19.8736 19.8664 19.8505 19.8128 19.7336 19.5876 19.3489 19.0044 
19.002 19.2788 19.4848 19.6191 19.6987 19.7445 19.7736 19.7975 19.8229 19.8527 19.8876 19.9269 19.9692 20.0132 20.0574 20.1004 20.1409 20.178 20.2107 20.2382 20.2598 20.275 20.2834 20.2848 20.2792 20.2667 20.2477 20.2226 20.1919 20.1566 20.1173 20.0751 20.0311 19.9863 19.9419 19.8993 19.8598 19.8246 19.7952 19.7727 19.7582 19.7519 19.7528 19.7578 19.7604 19.7486 19.7031 19.5946 19.384 19.0314 
19.0241 19.2313 19.4003 19.5245 19.6137 19.6817 19.7401 19.7964 19.8547 19.9163 19.9807 20.0467 20.1124 20.1759 20.2354 20.2893 20.3361 20.3747 20.404 20.4234 20.4323 20.4305 20.4182 20.3955 20.3631 20.3218 20.2726 20.2166 20.1553 20.0902 20.0228 19.9548 19.8879 19.8238 19.7641 19.7105 19.6643 19.6271 19.6002 19.5845 19.5809 19.5894 19.6094 19.6382 19.6706 19.6965 19.6976 19.6413 19.4705 19.0822 
19.0702 19.2301 19.3691 19.4916 19.6015 19.7047 19.8057 19.9067 20.0083 20.1095 20.2083 20.3024 20.3896 20.4675 20.534 20.5875 20.6265 20.6502 20.6578 20.6492 20.6246 20.5846 20.5302 20.4628 20.3839 20.2957 20.2001 20.0996 19.9967 19.8938 19.7935 19.6983 19.6106 19.5324 19.4658 19.4124 19.3737 19.3508 19.3444 19.355 19.3824 19.4261 19.4848 19.5559 19.6353 19.7154 19.7817 19.8033 19.7034 19.1557 
19.1393 19.3387 19.4642 19.6029 19.7513 19.9059 20.0628 20.2181 20.3681 20.509 20.6374 20.7501 20.8443 20.9178 20.9686 20.9956 20.998 20.9759 20.9298 20.8607 20.7705 20.6613 20.5358 20.3971 20.2487 20.0941 19.9372 19.7819 19.6319 19.491 19.3626 19.2499 19.1557 19.0822 19.0314 19.0044 19.002 19.0241 19.0702 19.1393 19.2295 19.3387 19.4642 19.6029 19.7513 19.9059 20.0628 20.2181 20.3681 19.2499 
