# vtk DataFile Version 3.0
Temperature distribution on a 2D grid
ASCII

DATASET STRUCTURED_POINTS
DIMENSIONS 50 50 1
ORIGIN 0.0 0.0 0.0
SPACING 0.01 0.01 1.0

POINT_DATA 2500
SCALARS temperature double
LOOKUP_TABLE default
20.7902 19.1237 19.0591 19.0177 19.0005 19.0079 19.0397 19.0952 19.1729 19.271 19.3871 19.5182 19.6613 19.8126 19.9686 20.1253 20.279 20.4258 20.5621 20.6845 20.7902 20.8763 20.9409 20.9823 20.9995 20.9921 20.9603 20.9048 20.8271 20.729 20.6129 20.4818 20.3387 20.1874 20.0314 19.8747 19.721 19.5742 19.4379 19.3155 19.2098 19.1237 19.0591 19.0177 19.0005 19.0079 19.0397 19.0952 19.1729 19.3871 
20.6845 19.9169 19.638 19.5119 19.4645 19.4648 19.4977 19.5543 19.6283 19.7151 19.8107 19.9119 20.0155 20.1187 20.2189 20.3135 20.4004 20.4772 20.5422 20.5939 20.6309 20.6524 20.6578 20.647 20.6203 20.5784 20.5222 20.4531 20.3729 20.2835 20.1872 20.0862 19.9831 19.8804 19.7806 19.6862 19.5994 19.5224 19.4572 19.4057 19.3695 19.3501 19.3487 19.366 19.4017 19.453 19.5126 19.5653 19.5816 19.5182 
20.5621 20.2378 20.0153 19.8812 19.8143 19.7958 19.8111 19.8494 19.9028 19.965 20.0316 20.0989 20.1644 20.2258 20.2815 20.3299 20.37 20.4008 20.4216 20.432 20.4317 20.4208 20.3995 20.3684 20.3282 20.2799 20.2248 20.1642 20.0995 20.0324 19.9645 19.8975 19.833 19.7725 19.7176 19.6695 19.6294 19.5984 19.5773 19.5671 19.5689 19.5837 19.6127 19.6567 19.7149 19.7831 19.8496 19.889 19.8536 19.6613 
20.4258 20.3486 20.2205 20.1105 20.0381 20.0028 19.9972 20.013 20.0424 20.0793 20.1189 20.1577 20.1935 20.2246 20.2498 20.2685 20.2803 20.285 20.2824 20.2729 20.2565 20.2338 20.2054 20.1719 20.1342 20.0932 20.05 20.0055 19.961 19.9174 19.8758 19.8373 19.8028 19.7731 19.7489 19.7306 19.7188 19.7138 19.7158 19.7255 19.7437 19.7716 19.8109 19.8629 19.9277 20.001 20.0695 20.1039 20.0487 19.8126 
20.279 20.3546 20.3083 20.2299 20.1604 20.1138 20.0907 20.0867 20.0955 20.1116 20.1305 20.149 20.1648 20.1767 20.1839 20.1862 20.1836 20.1761 20.164 20.1479 20.128 20.1049 20.0793 20.0517 20.0229 19.9936 19.9644 19.9361 19.9095 19.8851 19.8635 19.8453 19.8309 19.8206 19.8145 19.8128 19.8153 19.8222 19.8334 19.8495 19.8712 19.9003 19.9389 19.9898 20.054 20.1287 20.2016 20.2432 20.1966 19.9686 
20.1253 20.3045 20.3233 20.2757 20.2137 20.1614 20.1262 20.1074 20.101 20.1024 20.1073 20.1129 20.117 20.1185 20.1168 20.1119 20.1037 20.0927 20.0792 20.0635 20.0463 20.0278 20.0087 19.9894 19.9704 19.9522 19.9351 19.9197 19.9063 19.8952 19.8868 19.8811 19.8784 19.8785 19.8815 19.887 19.895 19.9051 19.9175 19.9325 19.9512 19.9756 20.009 20.0548 20.1162 20.1923 20.2732 20.3319 20.3136 20.1253 
19.9686 20.224 20.2956 20.277 20.2258 20.1726 20.1305 20.1022 20.0858 20.0777 20.0743 20.0727 20.071 20.068 20.0631 20.0563 20.0477 20.0376 20.0263 20.0143 20.0017 19.9892 19.9768 19.9651 19.9543 19.9446 19.9363 19.9296 19.9247 19.9217 19.9207 19.9216 19.9244 19.929 19.9352 19.9425 19.9508 19.9598 19.9694 19.9802 19.9933 20.0113 20.0379 20.0779 20.136 20.214 20.3054 20.3873 20.4086 20.279 
19.8126 20.1276 20.2445 20.2537 20.2159 20.166 20.1214 20.088 20.0657 20.0522 20.0443 20.0393 20.0353 20.0312 20.0263 20.0204 20.0136 20.0062 19.9983 19.9903 19.9825 19.9751 19.9683 19.9622 19.9572 19.9532 19.9504 19.9489 19.9487 19.9498 19.9522 19.9557 19.9604 19.9659 19.9721 19.9785 19.9848 19.9909 19.9966 20.0024 20.0098 20.0213 20.0413 20.0755 20.1305 20.2106 20.3132 20.4204 20.4867 20.4258 
19.6613 20.0241 20.1811 20.2179 20.1957 20.1526 20.109 20.0737 20.0486 20.0323 20.0222 20.016 20.0117 20.0081 20.0044 20.0004 19.996 19.9914 19.9868 19.9823 19.9782 19.9746 19.9716 19.9693 19.9678 19.9671 19.9672 19.9683 19.9701 19.9727 19.9761 19.9801 19.9846 19.9893 19.9941 19.9986 20.0024 20.0054 20.0074 20.0088 20.0112 20.0171 20.0312 20.0601 20.1117 20.1932 20.3061 20.4379 20.5499 20.5621 
19.5182 19.919 20.1121 20.1762 20.1713 20.1375 20.0977 20.063 20.037 20.0196 20.0087 20.0022 19.9983 19.9957 19.9935 19.9913 19.9891 19.9869 19.9848 19.9828 19.9812 19.98 19.9793 19.9791 19.9794 19.9803 19.9817 19.9836 19.986 19.9887 19.9918 19.9952 19.9986 20.0021 20.0052 20.0078 20.0094 20.0098 20.0089 20.0069 20.0053 20.0066 20.0155 20.0394 20.0873 20.1688 20.2896 20.4432 20.5988 20.6845 
19.3871 19.8163 20.0411 20.1317 20.1455 20.1228 20.0887 20.0563 20.0308 20.0132 20.0021 19.9957 19.9923 19.9906 19.9896 19.9889 19.9883 19.9877 19.9872 19.9869 19.9867 19.9869 19.9873 19.9881 19.9892 19.9905 19.9922 19.9941 19.9961 19.9984 20.0007 20.0031 20.0054 20.0076 20.0093 20.0104 20.0104 20.009 20.0061 20.0018 19.9971 19.9947 19.9992 20.0179 20.0613 20.141 20.2667 20.4383 20.6333 20.7902 
19.271 19.7187 19.9705 20.0861 20.1189 20.1086 20.0817 20.0527 20.0286 20.0113 20.0002 19.9939 19.9909 19.9897 19.9895 19.9898 19.9902 19.9906 19.991 19.9915 19.9921 19.9929 19.9938 19.9948 19.996 19.9973 19.9987 20.0002 20.0017 20.0032 20.0048 20.0063 20.0077 20.0088 20.0096 20.0097 20.0087 20.0063 20.0022 19.9964 19.9896 19.9841 19.9844 19.998 20.0359 20.1118 20.239 20.4238 20.6529 20.8763 
19.1729 19.6286 19.9018 20.0402 20.0916 20.0945 20.0755 20.0509 20.0287 20.0121 20.0011 19.9949 19.9919 19.991 19.9912 19.9919 19.9928 19.9937 19.9946 19.9955 19.9964 19.9973 19.9982 19.9992 20.0001 20.0012 20.0022 20.0031 20.0041 20.005 20.0059 20.0067 20.0074 20.008 20.0082 20.0077 20.0064 20.0035 19.9988 19.9921 19.9838 19.9758 19.9722 19.9805 20.012 20.0819 20.2071 20.4001 20.657 20.9409 
19.0952 19.5481 19.8364 19.9946 20.0636 20.0797 20.0694 20.0497 20.0299 20.0142 20.0034 19.997 19.994 19.993 19.9933 19.9941 19.9952 19.9963 19.9973 19.9982 19.9991 20 20.0008 20.0015 20.0022 20.0029 20.0035 20.0041 20.0046 20.0051 20.0055 20.0059 20.0062 20.0064 20.0063 20.0058 20.0043 20.0014 19.9966 19.9894 19.9801 19.97 19.9628 19.9655 19.9896 20.0517 20.1716 20.3675 20.6455 20.9823 
19.0397 19.479 19.7755 19.9498 20.0349 20.0639 20.0625 20.0481 20.0311 20.0165 20.006 19.9995 19.9962 19.995 19.9951 19.9959 19.9969 19.998 19.999 19.9999 20.0007 20.0013 20.0019 20.0025 20.0029 20.0033 20.0037 20.0039 20.0041 20.0043 20.0044 20.0046 20.0047 20.0048 20.0047 20.0042 20.0029 20.0003 19.9956 19.9883 19.9783 19.9664 19.9557 19.9528 19.969 20.0216 20.1329 20.3267 20.6184 20.9995 
19.0079 19.4229 19.7205 19.9065 20.0058 20.047 20.0544 20.0457 20.0318 20.0186 20.0085 20.0018 19.9982 19.9967 19.9965 19.9971 19.998 19.9989 19.9998 20.0006 20.0013 20.0018 20.0022 20.0026 20.0029 20.0031 20.0032 20.0033 20.0033 20.0033 20.0033 20.0033 20.0034 20.0034 20.0034 20.0031 20.0022 19.9999 19.9956 19.9885 19.978 19.9646 19.9508 19.9423 19.95 19.9916 20.0915 20.2782 20.5764 20.9921 
19.0005 19.3811 19.6724 19.8658 19.9767 20.029 20.045 20.0421 20.0316 20.02 20.0104 20.0038 19.9998 19.998 19.9975 19.9978 19.9985 19.9993 20.0001 20.0008 20.0013 20.0017 20.0021 20.0023 20.0024 20.0025 20.0025 20.0025 20.0024 20.0023 20.0023 20.0022 20.0023 20.0025 20.0026 20.0026 20.002 20.0002 19.9963 19.9895 19.9789 19.9644 19.9477 19.9337 19.9328 19.9624 20.0482 20.2231 20.5203 20.9603 
19.0177 19.3545 19.6324 19.8283 19.9481 20.0103 20.0345 20.0374 20.0305 20.0207 20.0119 20.0053 20.0012 19.999 19.9982 19.9982 19.9987 19.9994 20 20.0006 20.001 20.0014 20.0016 20.0018 20.0019 20.0019 20.0019 20.0018 20.0016 20.0015 20.0015 20.0015 20.0016 20.0018 20.0021 20.0023 20.0021 20.0008 19.9975 19.9912 19.9807 19.9653 19.9461 19.9271 19.9174 19.9342 20.0039 20.1627 20.4514 20.9048 
19.0591 19.3438 19.6014 19.795 19.9208 19.9912 20.023 20.0316 20.0284 20.0207 20.0128 20.0065 20.0022 19.9997 19.9986 19.9984 19.9987 19.9992 19.9998 20.0003 20.0007 20.001 20.0012 20.0013 20.0014 20.0013 20.0013 20.0012 20.0011 20.0009 20.0009 20.0009 20.001 20.0014 20.0018 20.0023 20.0024 20.0016 19.999 19.9932 19.983 19.9672 19.946 19.9223 19.9042 19.9077 19.9595 20.0982 20.3714 20.8271 
19.1237 19.3492 19.5802 19.7667 19.8953 19.9722 20.0108 20.0249 20.0254 20.02 20.0132 20.0073 20.0029 20.0003 19.999 19.9986 19.9987 19.999 19.9995 19.9999 20.0003 20.0006 20.0008 20.0009 20.0009 20.0009 20.0008 20.0007 20.0006 20.0005 20.0004 20.0005 20.0007 20.001 20.0016 20.0022 20.0027 20.0024 20.0005 19.9955 19.9858 19.9699 19.9472 19.9194 19.8933 19.8835 19.9161 20.0313 20.2823 20.729 
19.2098 19.3706 19.5693 19.7441 19.8723 19.9538 19.9982 20.0174 20.0217 20.0187 20.0132 20.0078 20.0036 20.0008 19.9993 19.9986 19.9986 19.9989 19.9992 19.9996 19.9999 20.0002 20.0004 20.0005 20.0006 20.0006 20.0005 20.0004 20.0003 20.0002 20.0001 20.0002 20.0003 20.0007 20.0014 20.0022 20.003 20.0032 20.0019 19.9978 19.9889 19.9733 19.9496 19.9184 19.8849 19.862 19.8747 19.9636 20.1862 20.6129 
19.3155 19.4075 19.569 19.7278 19.8524 19.9365 19.9856 20.0094 20.0174 20.0168 20.0128 20.008 20.004 20.0012 19.9995 19.9988 19.9986 19.9987 19.999 19.9994 19.9997 19.9999 20.0001 20.0002 20.0003 20.0003 20.0003 20.0002 20.0001 20 19.9999 19.9999 20.0001 20.0005 20.0012 20.0021 20.0032 20.0039 20.0033 20.0001 19.9922 19.9773 19.9532 19.9194 19.8793 19.8439 19.8364 19.8968 20.0855 20.4818 
19.4379 19.459 19.5793 19.7181 19.8361 19.9207 19.9733 20.0012 20.0126 20.0145 20.012 20.0081 20.0044 20.0016 19.9998 19.9989 19.9986 19.9987 19.9989 19.9992 19.9995 19.9997 19.9999 20.0001 20.0001 20.0001 20.0001 20 19.9999 19.9998 19.9997 19.9997 19.9998 20.0002 20.001 20.002 20.0033 20.0044 20.0046 20.0024 19.9957 19.9818 19.9579 19.9223 19.8766 19.8297 19.8021 19.8325 19.9827 20.3387 
19.5742 19.5238 19.5999 19.7153 19.8238 19.9069 19.9617 19.9929 20.0075 20.0118 20.0109 20.0079 20.0046 20.002 20.0002 19.9991 19.9987 19.9987 19.9988 19.9991 19.9994 19.9996 19.9998 19.9999 20 20 20 19.9999 19.9998 19.9997 19.9996 19.9995 19.9996 20 20.0007 20.0018 20.0033 20.0048 20.0057 20.0045 19.9991 19.9866 19.9635 19.927 19.877 19.8195 19.7725 19.7723 19.8803 20.1874 
19.721 19.6004 19.6304 19.7196 19.8159 19.8953 19.9509 19.9848 20.0021 20.0088 20.0095 20.0075 20.0047 20.0023 20.0005 19.9994 19.9989 19.9987 19.9988 19.999 19.9993 19.9995 19.9997 19.9998 19.9999 20 19.9999 19.9999 19.9997 19.9996 19.9994 19.9994 19.9994 19.9997 20.0004 20.0015 20.0032 20.0051 20.0066 20.0065 20.0026 19.9918 19.9701 19.9336 19.8803 19.8138 19.7486 19.7177 19.7809 20.0314 
19.8747 19.6867 19.6699 19.7307 19.8124 19.8862 19.9414 19.977 19.9967 20.0056 20.0079 20.0069 20.0047 20.0025 20.0008 19.9996 19.999 19.9988 19.9989 19.999 19.9993 19.9995 19.9997 19.9998 19.9999 19.9999 19.9999 19.9998 19.9997 19.9995 19.9994 19.9992 19.9992 19.9995 20.0001 20.0013 20.003 20.0052 20.0074 20.0083 20.006 19.9971 19.9773 19.9417 19.8865 19.8126 19.7309 19.67 19.6868 19.8747 
20.0314 19.7808 19.7176 19.7484 19.8136 19.88 19.9332 19.9697 19.9914 20.0022 20.006 20.0061 20.0046 20.0027 20.001 19.9999 19.9992 19.999 19.999 19.9991 19.9993 19.9995 19.9997 19.9998 19.9999 19.9999 19.9999 19.9998 19.9997 19.9995 19.9993 19.9992 19.9991 19.9993 19.9998 20.0009 20.0027 20.0052 20.008 20.01 20.0093 20.0025 19.9851 19.9512 19.8955 19.8161 19.7197 19.6305 19.6004 19.721 
20.1874 19.8802 19.7722 19.7723 19.8193 19.8766 19.9267 19.9631 19.9862 19.9986 20.004 20.0051 20.0043 20.0027 20.0013 20.0001 19.9995 19.9991 19.9991 19.9992 19.9993 19.9995 19.9997 19.9998 19.9999 20 20 19.9999 19.9998 19.9996 19.9994 19.9992 19.999 19.9991 19.9996 20.0006 20.0024 20.0051 20.0083 20.0113 20.0123 20.0079 19.9932 19.962 19.9071 19.8241 19.7155 19.6 19.5239 19.5742 
20.3387 19.9826 19.8324 19.8018 19.8294 19.8763 19.9219 19.9574 19.9812 19.9951 20.0018 20.004 20.0038 20.0027 20.0014 20.0004 19.9997 19.9993 19.9992 19.9993 19.9994 19.9996 19.9998 19.9999 20 20.0001 20.0001 20 19.9999 19.9997 19.9995 19.9992 19.999 19.999 19.9994 20.0003 20.0021 20.0048 20.0085 20.0124 20.0149 20.013 20.0015 19.9736 19.921 19.8363 19.7182 19.5794 19.4591 19.4379 
20.4818 20.0854 19.8966 19.8361 19.8436 19.8789 19.9189 19.9527 19.9767 19.9916 19.9995 20.0027 20.0032 20.0025 20.0015 20.0006 19.9999 19.9995 19.9994 19.9995 19.9996 19.9998 20 20.0001 20.0002 20.0003 20.0003 20.0003 20.0001 19.9999 19.9997 19.9994 19.9991 19.999 19.9992 20 20.0017 20.0045 20.0085 20.0132 20.0172 20.0177 20.0097 19.9859 19.9367 19.8526 19.7279 19.5691 19.4076 19.3155 
20.6129 20.1861 19.9634 19.8744 19.8616 19.8844 19.9179 19.949 19.9727 19.9882 19.9971 20.0012 20.0025 20.0023 20.0015 20.0007 20.0001 19.9998 19.9997 19.9997 19.9998 20 20.0002 20.0004 20.0005 20.0006 20.0006 20.0006 20.0004 20.0002 19.9999 19.9996 19.9992 19.999 19.9991 19.9997 20.0012 20.004 20.0081 20.0135 20.019 20.022 20.0176 19.9984 19.954 19.8725 19.7442 19.5694 19.3707 19.2098 
20.729 20.2822 20.0311 19.9158 19.883 19.8927 19.9188 19.9465 19.9692 19.9851 19.9947 19.9997 20.0017 20.002 20.0015 20.0009 20.0004 20.0001 20 20.0001 20.0002 20.0004 20.0006 20.0008 20.0009 20.001 20.001 20.0009 20.0008 20.0006 20.0003 19.9999 19.9994 19.9991 19.9989 19.9993 20.0007 20.0033 20.0076 20.0135 20.0202 20.0256 20.025 20.0109 19.9723 19.8954 19.7668 19.5803 19.3492 19.1237 
20.8271 20.3713 20.0979 19.9591 19.9072 19.9036 19.9216 19.9452 19.9664 19.9822 19.9924 19.9982 20.0008 20.0017 20.0016 20.0012 20.0008 20.0006 20.0005 20.0006 20.0007 20.0009 20.0011 20.0013 20.0014 20.0015 20.0015 20.0014 20.0012 20.001 20.0006 20.0001 19.9996 19.999 19.9987 19.9989 19.9999 20.0023 20.0066 20.0129 20.0208 20.0284 20.0316 20.023 19.9912 19.9208 19.795 19.6014 19.3438 19.0591 
20.9048 20.4513 20.1624 20.0035 19.9337 19.9168 19.9264 19.9454 19.9646 19.9799 19.9905 19.9968 20.0001 20.0015 20.0018 20.0017 20.0015 20.0013 20.0013 20.0013 20.0015 20.0017 20.0018 20.002 20.0021 20.0021 20.002 20.0019 20.0016 20.0013 20.0008 20.0002 19.9995 19.9988 19.9983 19.9982 19.999 20.0011 20.0052 20.0118 20.0206 20.0303 20.0373 20.0344 20.0102 19.9481 19.8283 19.6324 19.3545 19.0177 
20.9603 20.5202 20.2229 20.0479 19.9619 19.9323 19.9332 19.9471 19.9638 19.9784 19.989 19.9959 19.9998 20.0016 20.0024 20.0025 20.0024 20.0023 20.0023 20.0024 20.0025 20.0026 20.0027 20.0027 20.0027 20.0026 20.0024 20.0022 20.0018 20.0013 20.0007 20 19.9992 19.9983 19.9976 19.9972 19.9976 19.9995 20.0034 20.0101 20.0197 20.0313 20.0419 20.0448 20.0288 19.9766 19.8657 19.6724 19.3811 19.0005 
20.9921 20.5764 20.2781 20.0914 19.9915 19.9499 19.9421 19.9506 19.9645 19.9779 19.9884 19.9956 20 20.0023 20.0034 20.0038 20.0038 20.0037 20.0037 20.0036 20.0036 20.0036 20.0035 20.0034 20.0031 20.0029 20.0025 20.002 20.0015 20.0008 20.0001 19.9992 19.9983 19.9972 19.9963 19.9957 19.9959 19.9974 20.0011 20.0078 20.018 20.0313 20.0453 20.0542 20.0469 20.0058 19.9066 19.7205 19.423 19.0079 
20.9995 20.6186 20.3269 20.1332 20.022 19.9695 19.9534 19.9563 19.967 19.979 19.9891 19.9964 20.0011 20.0038 20.0051 20.0055 20.0056 20.0055 20.0052 20.005 20.0047 20.0044 20.004 20.0035 20.003 20.0024 20.0018 20.0011 20.0003 19.9995 19.9986 19.9976 19.9965 19.9954 19.9944 19.9937 19.9936 19.9949 19.9984 20.0051 20.0159 20.0307 20.0479 20.0625 20.0641 20.0352 19.9501 19.7758 19.4792 19.0397 
20.9823 20.6459 20.3684 20.1728 20.0532 19.9914 19.9673 19.9647 19.9719 19.9821 19.9914 19.9985 20.0033 20.006 20.0073 20.0077 20.0076 20.0072 20.0066 20.0059 20.0051 20.0043 20.0035 20.0026 20.0016 20.0007 19.9997 19.9987 19.9977 19.9968 19.9958 19.9948 19.9938 19.9928 19.9919 19.9912 19.9912 19.9924 19.9959 20.0026 20.0138 20.03 20.0501 20.0701 20.0806 20.0646 19.9955 19.8371 19.5485 19.0952 
20.9409 20.6579 20.4019 20.2096 20.085 20.0155 19.9842 19.9761 19.9796 19.9875 19.9956 20.002 20.0064 20.0089 20.0099 20.0098 20.0092 20.0081 20.0069 20.0055 20.004 20.0026 20.0011 19.9996 19.9982 19.9968 19.9956 19.9944 19.9933 19.9924 19.9916 19.9909 19.9902 19.9896 19.9891 19.9888 19.9892 19.9907 19.9943 20.0012 20.0128 20.0301 20.0528 20.0778 20.0969 20.0939 20.0422 19.9032 19.6294 19.1729 
20.8763 20.6545 20.4269 20.2433 20.1171 20.0418 20.0042 19.9906 19.9901 19.9952 20.0014 20.0066 20.01 20.0115 20.0116 20.0107 20.009 20.007 20.0047 20.0023 20 19.9977 19.9955 19.9935 19.9917 19.9901 19.9887 19.9877 19.9869 19.9864 19.9862 19.9862 19.9864 19.9867 19.9871 19.9877 19.9889 19.991 19.9951 20.0023 20.0143 20.0324 20.0572 20.0865 20.1135 20.1233 20.0898 19.9731 19.72 19.271 
20.7902 20.6357 20.4429 20.2732 20.1489 20.07 20.0269 20.0078 20.0028 20.0042 20.0077 20.0107 20.0123 20.0122 20.0107 20.0082 20.005 20.0016 19.998 19.9945 19.9912 19.9881 19.9854 19.9831 19.9812 19.9799 19.979 19.9787 19.9789 19.9796 19.9807 19.9822 19.9839 19.9858 19.9879 19.99 19.9924 19.9956 20.0004 20.0081 20.0203 20.0389 20.0649 20.0974 20.1311 20.1528 20.1376 20.0451 19.8183 19.3871 
20.6845 20.602 20.4493 20.298 20.1789 20.0982 20.0503 20.0257 20.0154 20.0123 20.0119 20.0116 20.0102 20.0075 20.0037 19.9991 19.994 19.9889 19.984 19.9795 19.9755 19.9722 19.9696 19.9678 19.9668 19.9667 19.9674 19.9689 19.9712 19.9742 19.9777 19.9817 19.986 19.9904 19.9947 19.9989 20.0031 20.0076 20.0131 20.021 20.033 20.0511 20.0772 20.1114 20.1499 20.1818 20.1841 20.1173 19.9216 19.5182 
20.5621 20.5533 20.4444 20.3151 20.2039 20.1229 20.0706 20.0401 20.0235 20.0146 20.009 20.0041 19.9988 19.9927 19.986 19.979 19.9721 19.9656 19.9599 19.9552 19.9516 19.9493 19.9482 19.9485 19.95 19.9528 19.9568 19.9619 19.9679 19.9747 19.9821 19.9898 19.9976 20.0052 20.0123 20.0189 20.0248 20.0304 20.0362 20.0434 20.054 20.0702 20.0944 20.1278 20.1686 20.2081 20.2264 20.1859 20.0261 19.6613 
20.4258 20.4888 20.4247 20.3193 20.2175 20.137 20.0804 20.0432 20.0193 20.0034 19.9914 19.981 19.9711 19.9613 19.9518 19.943 19.9352 19.9288 19.9241 19.9212 19.9202 19.9213 19.9243 19.9292 19.9359 19.9443 19.954 19.9648 19.9765 19.9888 20.0014 20.0138 20.0257 20.0367 20.0465 20.0548 20.0615 20.0668 20.0713 20.076 20.0829 20.0945 20.1137 20.1429 20.1822 20.2261 20.2582 20.2448 20.1265 19.8126 
20.279 20.4065 20.3838 20.3011 20.2087 20.1287 20.0673 20.0228 19.9909 19.9672 19.9485 19.9326 19.9186 19.9063 19.8958 19.8875 19.8815 19.8784 19.8781 19.8808 19.8864 19.8949 19.9059 19.9194 19.9348 19.9519 19.9702 19.9892 20.0085 20.0276 20.0459 20.0631 20.0785 20.0918 20.1026 20.1104 20.1153 20.1173 20.1169 20.1155 20.1147 20.1176 20.1274 20.1477 20.1807 20.2243 20.2675 20.2824 20.2139 19.9686 
20.1253 20.301 20.3102 20.2456 20.1604 20.0801 20.0138 19.9622 19.9227 19.8922 19.8682 19.8491 19.8342 19.8231 19.816 19.8132 19.8146 19.8205 19.8307 19.845 19.8632 19.8847 19.9092 19.9358 19.9641 19.9933 20.0227 20.0515 20.0791 20.1047 20.1277 20.1475 20.1635 20.1753 20.1825 20.1849 20.1825 20.1754 20.1645 20.1509 20.1367 20.1249 20.1193 20.1247 20.1454 20.1832 20.2339 20.2791 20.2734 20.1253 
19.9686 20.1628 20.1858 20.13 20.0484 19.9673 19.8974 19.8412 19.7977 19.7648 19.741 19.725 19.7162 19.7144 19.7193 19.7309 19.749 19.7731 19.8027 19.8371 19.8756 19.9171 19.9607 20.0053 20.0498 20.0931 20.1341 20.1718 20.2052 20.2337 20.2563 20.2726 20.282 20.2844 20.2795 20.2675 20.2486 20.2235 20.1931 20.1591 20.1237 20.0901 20.0626 20.0465 20.0481 20.0734 20.1264 20.2028 20.2783 20.279 
19.8126 19.9737 19.9827 19.9234 19.8423 19.7629 19.695 19.6418 19.6034 19.5787 19.5668 19.5666 19.5775 19.5987 19.6297 19.6697 19.7177 19.7725 19.8329 19.8973 19.9644 20.0322 20.0994 20.164 20.2247 20.2798 20.3281 20.3683 20.3994 20.4207 20.4316 20.4318 20.4214 20.4004 20.3694 20.3292 20.2806 20.225 20.1641 20.0998 20.0349 19.9727 19.9176 19.8751 19.8522 19.858 19.9042 20.0055 20.1774 20.4258 
19.6613 19.6999 19.6615 19.5891 19.5117 19.4437 19.3919 19.3585 19.3439 19.3475 19.3684 19.4054 19.4573 19.5226 19.5995 19.6862 19.7806 19.8804 19.9831 20.0861 20.1871 20.2834 20.3728 20.453 20.5221 20.5783 20.6203 20.647 20.6578 20.6523 20.6309 20.5938 20.5421 20.477 20.4001 20.3132 20.2184 20.1183 20.0153 19.9123 19.8125 19.7192 19.6363 19.5685 19.5216 19.5038 19.5287 19.6247 19.861 20.5621 
19.5182 19.271 19.1729 19.0952 19.0397 19.0079 19.0005 19.0177 19.0591 19.1237 19.2098 19.3155 19.4379 19.5742 19.721 19.8747 20.0314 20.1874 20.3387 20.4818 20.6129 20.729 20.8271 20.9048 20.9603 20.9921 20.9995 20.9823 20.9409 20.8763 20.7902 20.6845 20.5621 20.4258 20.279 20.1253 19.9686 19.8126 19.6613 19.5182 19.3871 19.271 19.1729 19.0952 19.0397 19.0079 19.0005 19.0177 19.0591 20.6845 
