# vtk DataFile Version 3.0
Temperature distribution on a 2D grid
ASCII

DATASET STRUCTURED_POINTS
DIMENSIONS 50 50 1
ORIGIN 0.0 0.0 0.0
SPACING 0.01 0.01 1.0

POINT_DATA 2500
SCALARS temperature double
LOOKUP_TABLE default
19.8436 20.309 20.454 20.5878 20.7071 20.809 20.891 20.9511 20.9877 21 20.9877 20.9511 20.891 20.809 20.7071 20.5878 20.454 20.309 20.1564 20 19.8436 19.691 19.546 19.4122 19.2929 19.191 19.109 19.0489 19.0123 19 19.0123 19.0489 19.109 19.191 19.2929 19.4122 19.546 19.691 19.8436 20 20.1564 20.309 20.454 20.5878 20.7071 20.809 20.891 20.9511 20.9877 20.9877 
20 20.1855 20.3242 20.4371 20.5243 20.5864 20.6244 20.6398 20.6342 20.6093 20.5671 20.5094 20.4384 20.3563 20.2652 20.1675 20.0658 19.9625 19.8602 19.7614 19.6684 19.5837 19.5092 19.4468 19.398 19.3641 19.3458 19.3436 19.3576 19.3874 19.4323 19.4912 19.5627 19.6449 19.7359 19.8335 19.9351 20.0383 20.1402 20.2383 20.3297 20.4119 20.4829 20.5415 20.5882 20.6265 20.664 20.7146 20.8 20.9511 
20.1564 20.1195 20.1701 20.2395 20.3001 20.3419 20.3623 20.3624 20.3446 20.3119 20.2672 20.2132 20.1525 20.0873 20.0197 19.9515 19.8846 19.8206 19.7611 19.7077 19.6614 19.6236 19.595 19.5764 19.5682 19.5707 19.5838 19.6071 19.6401 19.6819 19.7316 19.7879 19.8496 19.9149 19.9825 20.0505 20.1172 20.181 20.2397 20.2917 20.335 20.3679 20.3895 20.4001 20.4029 20.406 20.4248 20.4852 20.6245 20.891 
20.309 20.1094 20.062 20.0784 20.1124 20.1416 20.1571 20.1568 20.1423 20.1161 20.0815 20.0412 19.9979 19.9536 19.91 19.8685 19.8304 19.7966 19.7679 19.7451 19.7286 19.7189 19.7161 19.7203 19.7314 19.7491 19.773 19.8025 19.8369 19.8753 19.9168 19.9604 20.005 20.0496 20.093 20.1343 20.1723 20.2058 20.2336 20.2543 20.2667 20.2692 20.2615 20.2445 20.2229 20.2074 20.2183 20.2888 20.4664 20.809 
20.454 20.1414 20.011 19.9771 19.9853 20.0046 20.0198 20.0249 20.0192 20.0045 19.9834 19.9584 19.9321 19.9061 19.8818 19.8604 19.8425 19.8286 19.8191 19.8143 19.814 19.8185 19.8274 19.8406 19.8578 19.8784 19.9021 19.9282 19.956 19.9849 20.0143 20.0433 20.0714 20.0978 20.1219 20.1432 20.161 20.1747 20.1832 20.1857 20.1808 20.1673 20.1444 20.1133 20.0788 20.0525 20.0571 20.1298 20.3243 20.7071 
20.5878 20.2011 20.0075 19.9309 19.9156 19.9258 19.9411 19.9521 19.9556 19.952 19.9431 19.9312 19.9181 19.9056 19.8947 19.8862 19.8807 19.8782 19.8789 19.8828 19.8897 19.8993 19.9115 19.9259 19.9421 19.9598 19.9784 19.9976 20.0168 20.0357 20.0537 20.0704 20.0855 20.0987 20.1096 20.118 20.1236 20.1259 20.1244 20.1181 20.1055 20.0854 20.0564 20.019 19.9775 19.9431 19.9388 20.0035 20.1951 20.5878 
20.7071 20.276 20.037 19.926 19.8898 19.8906 19.9048 19.9199 19.9305 19.9356 19.9359 19.9333 19.9293 19.9255 19.9226 19.9215 19.9223 19.9252 19.9301 19.9369 19.9454 19.9553 19.9664 19.9783 19.9908 20.0035 20.0161 20.0284 20.0399 20.0505 20.0598 20.0678 20.0742 20.0789 20.082 20.0832 20.0826 20.0799 20.0744 20.0653 20.0511 20.0298 19.9996 19.9602 19.9143 19.8721 19.8553 19.903 20.0754 20.454 
20.809 20.3561 20.0862 19.948 19.8932 19.8841 19.8952 19.912 19.9269 19.9376 19.9441 19.9474 19.9489 19.9499 19.9512 19.9534 19.9568 19.9613 19.967 19.9736 19.9811 19.989 19.9973 20.0058 20.014 20.022 20.0294 20.0361 20.0418 20.0466 20.0503 20.0528 20.0541 20.0543 20.0534 20.0515 20.0487 20.0446 20.0389 20.0304 20.0175 19.9979 19.9692 19.9296 19.8806 19.8301 19.798 19.8218 19.9631 20.309 
20.891 20.434 20.1446 19.9853 19.9138 19.8942 19.9006 19.9165 19.9332 19.947 19.9568 19.9634 19.9679 19.9711 19.9741 19.9773 19.981 19.9852 19.99 19.9952 20.0006 20.0061 20.0115 20.0167 20.0214 20.0257 20.0293 20.0322 20.0343 20.0355 20.036 20.0356 20.0344 20.0327 20.0304 20.0278 20.0248 20.0214 20.0171 20.0108 20.0007 19.9841 19.9578 19.919 19.8674 19.8085 19.7593 19.7553 19.8572 20.1564 
20.9511 20.5044 20.205 20.0295 19.9431 19.9128 19.9128 19.9261 19.9425 19.9572 19.9686 19.9767 19.9824 19.9864 19.9897 19.9927 19.9957 19.9989 20.0023 20.0057 20.0092 20.0124 20.0155 20.0182 20.0204 20.0222 20.0234 20.0241 20.0241 20.0236 20.0225 20.0209 20.019 20.0167 20.0145 20.0123 20.0103 20.0084 20.0061 20.0024 19.9953 19.982 19.9586 19.9211 19.8674 19.8005 19.7341 19.7002 19.7577 20 
20.9877 20.5637 20.2625 20.0753 19.9758 19.9348 19.9276 19.9367 19.9512 19.9655 19.9772 19.9857 19.9917 19.9958 19.9988 20.0012 20.0033 20.0053 20.0074 20.0093 20.0112 20.0128 20.0142 20.0153 20.016 20.0164 20.0163 20.0159 20.015 20.0138 20.0122 20.0104 20.0085 20.0066 20.0048 20.0035 20.0027 20.0023 20.0021 20.0009 19.9967 19.9866 19.9662 19.9305 19.8756 19.8017 19.7189 19.6549 19.6655 19.8436 
21 20.6093 20.3139 20.1195 20.009 19.9576 19.9426 19.9466 19.9584 19.9713 19.9824 19.9908 19.9967 20.0005 20.0031 20.0048 20.0061 20.0073 20.0083 20.0092 20.0099 20.0105 20.0109 20.0111 20.0111 20.0107 20.0101 20.0092 20.0082 20.0068 20.0054 20.0038 20.0023 20.0009 19.9999 19.9994 19.9996 20.0006 20.002 20.0029 20.0014 19.9943 19.9769 19.9435 19.8884 19.8091 19.7117 19.6189 19.5818 19.691 
20.9877 20.6398 20.3572 20.1601 20.0408 19.98 19.9571 19.9556 19.9639 19.9749 19.9851 19.993 19.9985 20.0021 20.0043 20.0055 20.0063 20.0068 20.0071 20.0074 20.0075 20.0076 20.0075 20.0072 20.0068 20.0063 20.0056 20.0047 20.0037 20.0026 20.0015 20.0003 19.9992 19.9984 19.9979 19.9981 19.9991 20.001 20.0037 20.0062 20.007 20.0028 19.9886 19.9581 19.904 19.8211 19.7114 19.5922 19.5084 19.546 
20.9511 20.6543 20.3912 20.1959 20.0705 20.0014 19.971 19.9638 19.9682 19.977 19.9859 19.9932 19.9985 20.0018 20.0038 20.0048 20.0052 20.0053 20.0053 20.0052 20.0051 20.0049 20.0046 20.0042 20.0038 20.0033 20.0026 20.002 20.0012 20.0004 19.9996 19.9988 19.9981 19.9976 19.9975 19.9981 19.9996 20.0021 20.0056 20.0096 20.0123 20.0107 20 19.973 19.9211 19.8368 19.7176 19.5751 19.4469 19.4122 
20.891 20.6525 20.415 20.2262 20.0976 20.0217 19.9843 19.9715 19.9721 19.9783 19.9859 19.9925 19.9974 20.0007 20.0025 20.0034 20.0037 20.0037 20.0036 20.0034 20.0031 20.0028 20.0025 20.0022 20.0019 20.0015 20.001 20.0005 20 19.9995 19.9989 19.9984 19.998 19.9977 19.9978 19.9986 20.0003 20.0031 20.0072 20.0122 20.0166 20.0177 20.0104 19.9875 19.9393 19.8556 19.7301 19.5679 19.3988 19.2929 
20.809 20.6344 20.4283 20.2505 20.1216 20.0407 19.9973 19.9792 19.9758 19.9795 19.9856 19.9915 19.9961 19.9992 20.0011 20.002 20.0024 20.0024 20.0022 20.002 20.0017 20.0015 20.0013 20.001 20.0008 20.0005 20.0003 20 19.9997 19.9993 19.999 19.9986 19.9983 19.9981 19.9983 19.9991 20.0008 20.0037 20.0082 20.0139 20.0198 20.0233 20.0198 20.0016 19.9581 19.8773 19.7486 19.571 19.3652 19.191 
20.7071 20.6006 20.4309 20.2683 20.1423 20.0584 20.01 19.987 19.9798 19.9809 19.9855 19.9905 19.9948 19.9979 19.9998 20.0008 20.0012 20.0013 20.0012 20.001 20.0009 20.0007 20.0006 20.0004 20.0003 20.0002 20 19.9999 19.9997 19.9995 19.9992 19.999 19.9987 19.9985 19.9987 19.9993 20.0009 20.0038 20.0084 20.0146 20.0218 20.0277 20.0279 20.0149 19.9774 19.9015 19.7729 19.5843 19.3472 19.109 
20.5878 20.5519 20.4227 20.2793 20.1593 20.0744 20.0222 19.9949 19.9842 19.9827 19.9856 19.9899 19.9938 19.9967 19.9987 19.9998 20.0004 20.0006 20.0006 20.0005 20.0004 20.0003 20.0002 20.0002 20.0001 20.0001 20 20 19.9999 19.9997 19.9995 19.9993 19.999 19.9988 19.9988 19.9993 20.0007 20.0034 20.008 20.0146 20.0229 20.031 20.035 20.0274 19.9968 19.9277 19.8025 19.6077 19.3451 19.0489 
20.454 20.4897 20.4041 20.2834 20.1724 20.0885 20.0338 20.003 19.9889 19.985 19.9863 19.9895 19.993 19.9959 19.9979 19.9991 19.9998 20.0001 20.0002 20.0002 20.0001 20.0001 20.0001 20.0001 20.0001 20.0001 20.0001 20.0001 20.0001 19.9999 19.9998 19.9995 19.9992 19.999 19.9988 19.9991 20.0002 20.0027 20.0071 20.0139 20.0231 20.0332 20.0408 20.039 20.0161 19.9555 19.8368 19.6406 19.359 19.0123 
20.309 20.4153 20.3755 20.2805 20.1811 20.1005 20.0446 20.011 19.994 19.9877 19.9873 19.9896 19.9926 19.9952 19.9972 19.9986 19.9993 19.9997 19.9999 20 20 20 20.0001 20.0001 20.0001 20.0002 20.0002 20.0002 20.0002 20.0001 19.9999 19.9997 19.9993 19.999 19.9987 19.9987 19.9995 20.0017 20.0058 20.0127 20.0225 20.0345 20.0456 20.0495 20.0348 19.9843 19.8751 19.6823 19.3887 19 
20.1564 20.3308 20.3377 20.2707 20.1854 20.11 20.0544 20.0188 19.9993 19.9908 19.9888 19.99 19.9924 19.9948 19.9968 19.9982 19.999 19.9995 19.9998 19.9999 20 20 20.0001 20.0001 20.0002 20.0002 20.0003 20.0003 20.0002 20.0002 20 19.9997 19.9993 19.9989 19.9985 19.9983 19.9988 20.0005 20.0044 20.0111 20.0214 20.0348 20.0491 20.0587 20.0527 20.0135 19.9164 19.7319 19.4335 19.0123 
20 20.238 20.2916 20.2542 20.1852 20.1168 20.0628 20.0262 20.0047 19.9941 19.9905 19.9907 19.9925 19.9946 19.9965 19.9979 19.9988 19.9993 19.9997 19.9998 19.9999 20 20.0001 20.0001 20.0002 20.0002 20.0003 20.0003 20.0003 20.0002 20 19.9997 19.9993 19.9988 19.9982 19.9978 19.998 19.9994 20.0028 20.0092 20.0196 20.0342 20.0514 20.0664 20.0692 20.0423 19.9598 19.788 19.4922 19.0489 
19.8436 20.1395 20.2383 20.2315 20.1804 20.1208 20.0697 20.0329 20.0099 19.9977 19.9926 19.9917 19.9928 19.9945 19.9963 19.9976 19.9986 19.9992 19.9996 19.9998 19.9999 20 20 20.0001 20.0002 20.0002 20.0002 20.0003 20.0002 20.0002 20 19.9997 19.9993 19.9987 19.998 19.9974 19.9973 19.9982 20.0011 20.0071 20.0174 20.0328 20.0525 20.0726 20.084 20.0701 20.0041 19.8493 19.5634 19.109 
19.691 20.0375 20.1791 20.2031 20.1712 20.1218 20.0749 20.0389 20.015 20.0013 19.9948 19.9928 19.9933 19.9946 19.9962 19.9975 19.9984 19.9991 19.9995 19.9997 19.9999 20 20 20.0001 20.0001 20.0002 20.0002 20.0002 20.0002 20.0001 20 19.9997 19.9992 19.9986 19.9978 19.9971 19.9966 19.9971 19.9994 20.0048 20.0148 20.0307 20.0523 20.0769 20.0968 20.0962 20.0484 19.9144 19.6454 19.191 
19.546 19.9346 20.1155 20.1697 20.1578 20.1198 20.0783 20.0438 20.0196 20.0048 19.9972 19.9942 19.9939 19.9948 19.9961 19.9974 19.9983 19.999 19.9994 19.9997 19.9999 20 20 20.0001 20.0001 20.0002 20.0002 20.0002 20.0002 20.0001 19.9999 19.9997 19.9992 19.9986 19.9977 19.9968 19.996 19.996 19.9977 20.0024 20.0119 20.0277 20.0508 20.0794 20.1072 20.1199 20.0914 19.9816 19.7361 19.2929 
19.4122 19.8333 20.0491 20.1321 20.1405 20.1148 20.0797 20.0478 20.0238 20.0083 19.9996 19.9957 19.9947 19.9952 19.9962 19.9973 19.9982 19.9989 19.9994 19.9997 19.9999 20 20 20.0001 20.0001 20.0001 20.0001 20.0001 20.0001 20.0001 19.9999 19.9997 19.9992 19.9986 19.9977 19.9966 19.9955 19.9951 19.9961 20 20.0086 20.0241 20.048 20.0799 20.115 20.1407 20.1323 20.0492 19.8333 19.4122 
19.2929 19.7361 19.9815 20.0913 20.1197 20.107 20.0792 20.0505 20.0274 20.0115 20.002 19.9973 19.9956 19.9956 19.9964 19.9974 19.9982 19.9989 19.9994 19.9997 19.9998 20 20 20.0001 20.0001 20.0001 20.0001 20.0001 20.0001 20 19.9999 19.9997 19.9993 19.9986 19.9977 19.9965 19.9952 19.9943 19.9946 19.9975 20.0052 20.0199 20.0441 20.0785 20.12 20.158 20.1698 20.1156 19.9346 19.546 
19.191 19.6453 19.9143 20.0482 20.096 20.0966 20.0767 20.052 20.0303 20.0145 20.0044 19.999 19.9967 19.9962 19.9967 19.9974 19.9982 19.9989 19.9993 19.9996 19.9998 20 20 20.0001 20.0001 20.0001 20.0001 20.0001 20.0001 20 19.9999 19.9997 19.9993 19.9987 19.9978 19.9965 19.9949 19.9936 19.9932 19.9951 20.0016 20.0153 20.0391 20.0752 20.122 20.1714 20.2033 20.1792 20.0375 19.691 
19.109 19.5634 19.8493 20.004 20.0699 20.0838 20.0723 20.0522 20.0325 20.0171 20.0067 20.0007 19.9978 19.9969 19.997 19.9976 19.9983 19.9989 19.9993 19.9996 19.9998 19.9999 20 20 20 20 20 20 20 20 19.9999 19.9997 19.9994 19.9988 19.9979 19.9966 19.9949 19.9931 19.992 19.9929 19.998 20.0102 20.0332 20.07 20.121 20.1806 20.2317 20.2384 20.1395 19.8436 
19.0489 19.4922 19.7879 19.9596 20.0422 20.069 20.0662 20.0512 20.0339 20.0193 20.0089 20.0024 19.999 19.9976 19.9974 19.9978 19.9983 19.9989 19.9993 19.9996 19.9998 19.9999 20 20 20 20 20 20 20 20 19.9999 19.9998 19.9995 19.999 19.9981 19.9968 19.9949 19.9928 19.991 19.9909 19.9945 20.005 20.0265 20.0631 20.1171 20.1854 20.2544 20.2917 20.2381 20 
19.0123 19.4335 19.7318 19.9163 20.0134 20.0525 20.0585 20.0489 20.0345 20.021 20.0107 20.004 20.0001 19.9983 19.9978 19.9979 19.9984 19.9988 19.9992 19.9995 19.9997 19.9998 19.9999 19.9999 19.9999 19.9999 19.9999 19.9999 19.9999 20 20 19.9999 19.9997 19.9992 19.9984 19.9971 19.9952 19.9928 19.9904 19.9891 19.9912 19.9997 20.0192 20.0547 20.1103 20.1857 20.2708 20.3378 20.3308 20.1564 
19 19.3887 19.6823 19.875 19.9842 20.0346 20.0492 20.0453 20.0341 20.0221 20.0123 20.0054 20.0012 19.999 19.9981 19.9981 19.9983 19.9987 19.999 19.9993 19.9995 19.9996 19.9997 19.9998 19.9998 19.9998 19.9998 19.9999 19.9999 20 20.0001 20.0001 20 19.9996 19.9989 19.9976 19.9956 19.993 19.99 19.9878 19.9881 19.9944 20.0114 20.045 20.1008 20.1814 20.2807 20.3757 20.4154 20.309 
19.0123 19.359 19.6405 19.8367 19.9553 20.0158 20.0387 20.0405 20.0328 20.0226 20.0133 20.0065 20.002 19.9995 19.9984 19.9981 19.9982 19.9985 19.9988 19.999 19.9992 19.9994 19.9995 19.9996 19.9997 19.9998 19.9998 19.9999 20 20.0002 20.0003 20.0004 20.0004 20.0002 19.9995 19.9984 19.9964 19.9936 19.9901 19.9868 19.9855 19.9894 20.0034 20.0342 20.0889 20.1726 20.2836 20.4042 20.4897 20.454 
19.0489 19.345 19.6075 19.8023 19.9274 19.9964 20.0269 20.0344 20.0304 20.0221 20.0138 20.0071 20.0025 19.9998 19.9984 19.9978 19.9978 19.9981 19.9983 19.9986 19.9989 19.9991 19.9993 19.9995 19.9996 19.9998 20 20.0002 20.0003 20.0006 20.0008 20.001 20.0011 20.001 20.0005 19.9994 19.9974 19.9945 19.9905 19.9863 19.9833 19.9847 19.9954 20.0226 20.0747 20.1596 20.2794 20.4228 20.552 20.5878 
19.109 19.347 19.584 19.7725 19.9009 19.9767 20.014 20.027 20.0267 20.0207 20.0135 20.0072 20.0026 19.9996 19.9981 19.9974 19.9973 19.9975 19.9979 19.9982 19.9986 19.9989 19.9993 19.9996 19.9999 20.0002 20.0004 20.0007 20.001 20.0013 20.0016 20.0019 20.0021 20.0021 20.0017 20.0007 19.9988 19.9957 19.9913 19.9862 19.9815 19.9803 19.9874 20.0102 20.0585 20.1424 20.2683 20.4309 20.6006 20.7071 
19.191 19.3649 19.5704 19.7478 19.8762 19.9569 20.0002 20.0183 20.0217 20.0181 20.0122 20.0065 20.002 19.9991 19.9975 19.9968 19.9967 19.997 19.9975 19.998 19.9986 19.9991 19.9996 20.0001 20.0006 20.0011 20.0015 20.0019 20.0023 20.0027 20.003 20.0033 20.0035 20.0035 20.0032 20.0022 20.0003 19.997 19.9923 19.9862 19.98 19.9761 19.9793 19.9973 20.0406 20.1214 20.2503 20.4282 20.6343 20.809 
19.2929 19.3983 19.567 19.7287 19.8539 19.9373 19.9853 20.0081 20.0153 20.0142 20.0098 20.005 20.001 19.9983 19.9968 19.9962 19.9963 19.9968 19.9975 19.9983 19.9992 20 20.0008 20.0015 20.0022 20.0028 20.0034 20.0039 20.0043 20.0047 20.005 20.0052 20.0053 20.0052 20.0048 20.0037 20.0016 19.9982 19.993 19.9861 19.9783 19.9717 19.971 19.9837 20.0209 20.0969 20.2256 20.4146 20.6523 20.891 
19.4122 19.4462 19.5736 19.7155 19.8342 19.9181 19.9697 19.9967 20.0074 20.0091 20.0065 20.0029 19.9996 19.9974 19.9963 19.9961 19.9966 19.9975 19.9986 19.9998 20.001 20.0022 20.0033 20.0043 20.0051 20.0059 20.0064 20.0069 20.0072 20.0074 20.0074 20.0074 20.0072 20.0068 20.006 20.0047 20.0023 19.9986 19.9929 19.9852 19.9759 19.9668 19.9621 19.9692 19.9997 20.069 20.1947 20.3903 20.6539 20.9511 
19.546 19.5074 19.5901 19.7085 19.8175 19.8999 19.9538 19.9843 19.9986 20.0032 20.0029 20.0008 19.9987 19.9974 19.997 19.9975 19.9986 20 20.0017 20.0033 20.005 20.0064 20.0077 20.0088 20.0097 20.0103 20.0107 20.0108 20.0107 20.0103 20.0098 20.0092 20.0083 20.0073 20.006 20.0041 20.0013 19.9972 19.9911 19.9826 19.972 19.9607 19.9523 19.9538 19.9769 20.0381 20.158 20.3557 20.6391 20.9877 
19.691 19.5805 19.6164 19.7081 19.8048 19.8836 19.9386 19.9721 19.9899 19.9977 20 20 19.9996 19.9996 20.0003 20.0017 20.0035 20.0057 20.0078 20.0099 20.0118 20.0134 20.0146 20.0155 20.0159 20.016 20.0157 20.015 20.0139 20.0126 20.0111 20.0094 20.0075 20.0055 20.0033 20.0007 19.9973 19.9927 19.9862 19.9773 19.9657 19.9526 19.941 19.9373 19.9529 20.0051 20.1166 20.312 20.6084 21 
19.8436 19.6642 19.6524 19.7154 19.7975 19.871 19.926 19.9622 19.9835 19.9947 20.0001 20.0027 20.0044 20.0061 20.0081 20.0105 20.0132 20.0158 20.0183 20.0204 20.0221 20.0232 20.0238 20.0237 20.0231 20.0218 20.0201 20.0179 20.0152 20.0123 20.0091 20.0058 20.0025 19.9992 19.9959 19.9924 19.9885 19.9836 19.9771 19.9681 19.9564 19.9423 19.9284 19.9203 19.9287 19.9713 20.0722 20.2607 20.5629 20.9877 
20 19.7571 19.6989 19.7323 19.7984 19.8654 19.9196 19.958 19.9828 19.9978 20.0066 20.0122 20.0162 20.0196 20.023 20.0262 20.0292 20.0318 20.0338 20.0351 20.0356 20.0352 20.0339 20.0318 20.0289 20.0253 20.0211 20.0164 20.0113 20.0059 20.0005 19.9953 19.9902 19.9855 19.9812 19.9772 19.9732 19.9687 19.9629 19.955 19.9442 19.9306 19.9158 19.9046 19.9068 19.9395 20.0278 20.2047 20.5045 20.9511 
20.1564 19.8585 19.7576 19.7624 19.8123 19.872 19.9248 19.9651 19.9932 20.0119 20.0242 20.0325 20.0386 20.0433 20.0471 20.0502 20.0523 20.0535 20.0535 20.0523 20.0499 20.0463 20.0415 20.0357 20.029 20.0216 20.0137 20.0055 19.9971 19.9889 19.981 19.9737 19.9672 19.9616 19.9571 19.9535 19.9505 19.9478 19.9443 19.9392 19.9314 19.9203 19.9068 19.8945 19.8919 19.9149 19.9888 20.1488 20.4368 20.891 
20.309 19.9685 19.8318 19.8113 19.846 19.8985 19.9494 19.9909 20.0217 20.0433 20.058 20.068 20.0746 20.079 20.0814 20.082 20.081 20.0782 20.0736 20.0673 20.0595 20.0501 20.0396 20.0281 20.0158 20.0032 19.9905 19.9781 19.9662 19.9552 19.9454 19.937 19.9304 19.9255 19.9227 19.9216 19.9222 19.9236 19.9252 19.9256 19.9235 19.9178 19.9084 19.8976 19.8922 19.9062 19.9634 20.1003 20.3647 20.809 
20.454 20.0885 19.927 19.8872 19.9093 19.9549 20.003 20.0441 20.0755 20.0977 20.1122 20.1209 20.125 20.1254 20.1226 20.117 20.1088 20.098 20.085 20.07 20.0534 20.0354 20.0166 19.9973 19.9782 19.9595 19.9419 19.9257 19.9113 19.8992 19.8896 19.8829 19.8792 19.8786 19.8811 19.8865 19.8944 19.9041 19.9145 19.9242 19.9314 19.9345 19.9326 19.9263 19.9204 19.9258 19.964 20.0701 20.2959 20.7071 
20.5878 20.2214 20.0509 20.0007 20.0136 20.0523 20.0953 20.1324 20.16 20.1778 20.1868 20.1884 20.184 20.1744 20.1603 20.1425 20.1213 20.0973 20.071 20.043 20.014 19.9847 19.9558 19.9279 19.9019 19.8782 19.8576 19.8405 19.8273 19.8184 19.814 19.8143 19.8193 19.8289 19.8428 19.8606 19.8816 19.9049 19.929 19.9523 19.9728 19.9882 19.9967 19.9976 19.9929 19.9904 20.0066 20.0728 20.2407 20.5878 
20.7071 20.3718 20.2134 20.1633 20.17 20.1995 20.232 20.2578 20.2732 20.2774 20.2715 20.2567 20.2343 20.2057 20.1718 20.1338 20.0925 20.0492 20.0047 19.9601 19.9166 19.8751 19.8367 19.8024 19.7729 19.749 19.7313 19.7202 19.716 19.7188 19.7286 19.7452 19.7681 19.7969 19.8307 19.8688 19.9099 19.9527 19.9955 20.0363 20.0727 20.1022 20.1222 20.1308 20.1278 20.1168 20.1083 20.1253 20.213 20.454 
20.809 20.5462 20.4237 20.3832 20.3829 20.3959 20.4069 20.4083 20.3972 20.3735 20.3384 20.2934 20.2403 20.1809 20.1169 20.0501 19.9821 19.9147 19.8493 19.7878 19.7315 19.6818 19.6399 19.607 19.5837 19.5706 19.5681 19.5763 19.5949 19.6235 19.6614 19.7077 19.7613 19.8208 19.8848 19.9517 20.0196 20.0867 20.1508 20.2097 20.2608 20.3016 20.3292 20.3414 20.3363 20.3143 20.2789 20.2414 20.2295 20.309 
20.891 20.7525 20.6861 20.6566 20.6394 20.6197 20.5895 20.5453 20.4867 20.4147 20.3314 20.2391 20.1405 20.0383 19.935 19.8333 19.7358 19.6448 19.5625 19.4911 19.4322 19.3873 19.3575 19.3436 19.3457 19.364 19.398 19.4467 19.5091 19.5836 19.6684 19.7614 19.8603 19.9626 20.0659 20.1676 20.2652 20.356 20.4376 20.5076 20.5637 20.6038 20.6258 20.6279 20.6087 20.5672 20.5031 20.4163 20.3074 20.1564 
20.9511 21 20.9877 20.9511 20.891 20.809 20.7071 20.5878 20.454 20.309 20.1564 20 19.8436 19.691 19.546 19.4122 19.2929 19.191 19.109 19.0489 19.0123 19 19.0123 19.0489 19.109 19.191 19.2929 19.4122 19.546 19.691 19.8436 20 20.1564 20.309 20.454 20.5878 20.7071 20.809 20.891 20.9511 20.9877 21 20.9877 20.9511 20.891 20.809 20.7071 20.5878 20.454 20 
