# vtk DataFile Version 3.0
Temperature distribution on a 2D grid
ASCII

DATASET STRUCTURED_POINTS
DIMENSIONS 50 50 1
ORIGIN 0.0 0.0 0.0
SPACING 0.01 0.01 1.0

POINT_DATA 2500
SCALARS temperature double
LOOKUP_TABLE default
20.0941 19.7513 19.6029 19.4642 19.3387 19.2295 19.1393 19.0702 19.0241 19.002 19.0044 19.0314 19.0822 19.1557 19.2499 19.3626 19.491 19.6319 19.7819 19.9372 20.0941 20.2487 20.3971 20.5358 20.6613 20.7705 20.8607 20.9298 20.9759 20.998 20.9956 20.9686 20.9178 20.8443 20.7501 20.6374 20.509 20.3681 20.2181 20.0628 19.9059 19.7513 19.6029 19.4642 19.3387 19.2295 19.1393 19.0702 19.0241 19.0044 
19.9372 19.8101 19.6879 19.5792 19.4908 19.4246 19.3811 19.3595 19.3587 19.3773 19.4135 19.4657 19.5318 19.6099 19.6977 19.7931 19.8935 19.9965 20.0996 20.2001 20.2957 20.384 20.4629 20.5303 20.5847 20.6247 20.6493 20.658 20.6504 20.6268 20.5878 20.5344 20.4677 20.3895 20.3017 20.2064 20.1061 20.0033 19.9007 19.801 19.7069 19.6211 19.5456 19.4816 19.4286 19.3831 19.3377 19.2789 19.1865 19.0314 
19.7819 19.8508 19.8174 19.7557 19.6973 19.6545 19.6314 19.6278 19.6419 19.671 19.7126 19.764 19.8227 19.8866 19.9536 20.0219 20.0896 20.155 20.2165 20.2726 20.3219 20.3633 20.3957 20.4184 20.4308 20.4326 20.4237 20.4044 20.3752 20.3368 20.29 20.2361 20.1764 20.1122 20.0453 19.9772 19.9097 19.8447 19.7839 19.7294 19.6831 19.6467 19.621 19.6057 19.5973 19.5877 19.5615 19.4936 19.3484 19.0822 
19.6319 19.8515 19.9137 19.9062 19.8766 19.8488 19.8328 19.8316 19.8445 19.869 19.9024 19.9418 19.9847 20.0292 20.0735 20.1161 20.1558 20.1915 20.2224 20.2477 20.2669 20.2794 20.2851 20.2837 20.2753 20.2602 20.2387 20.2114 20.1788 20.1419 20.1014 20.0584 20.014 19.9692 19.925 19.8826 19.8432 19.8079 19.778 19.7549 19.74 19.7347 19.7393 19.7525 19.7695 19.7793 19.7613 19.683 19.4989 19.1557 
19.491 19.8169 19.9599 20.0031 20.0007 19.9843 19.9703 19.9653 19.9706 19.9848 20.0058 20.0307 20.0576 20.0843 20.1097 20.1325 20.152 20.1677 20.179 20.1859 20.1881 20.1856 20.1785 20.167 20.1514 20.1322 20.1096 20.0844 20.0571 20.0285 19.9991 19.9698 19.9411 19.9138 19.8885 19.8658 19.8465 19.8313 19.821 19.8168 19.8199 19.8316 19.8523 19.8806 19.9115 19.9325 19.9209 19.8396 19.6367 19.2499 
19.3626 19.7578 19.9622 20.048 20.0699 20.0639 20.0507 20.0408 20.0377 20.0415 20.0507 20.0631 20.0768 20.0902 20.1022 20.1119 20.1188 20.1227 20.1234 20.1209 20.1154 20.1069 20.0958 20.0824 20.0669 20.0498 20.0315 20.0124 19.993 19.9739 19.9554 19.9379 19.922 19.9078 19.8957 19.8861 19.8793 19.8757 19.8761 19.8813 19.8928 19.912 19.9397 19.9752 20.0137 20.0432 20.0404 19.966 19.7636 19.3626 
19.2499 19.6854 19.9332 20.053 20.0961 20.1002 20.0889 20.0755 20.0657 20.0612 20.0613 20.0644 20.069 20.0737 20.0774 20.0796 20.0798 20.0779 20.074 20.068 20.0604 20.0511 20.0406 20.0291 20.0168 20.0042 19.9915 19.9791 19.9671 19.956 19.946 19.9373 19.9301 19.9244 19.9205 19.9183 19.918 19.9199 19.9247 19.9332 19.9471 19.968 19.9975 20.0358 20.0792 20.1169 20.1263 20.068 19.8823 19.491 
19.1557 19.6089 19.8855 20.0316 20.0933 20.1076 20.0998 20.0851 20.0712 20.0612 20.0552 20.0524 20.0514 20.051 20.0504 20.0489 20.0463 20.0424 20.0374 20.0313 20.0244 20.0168 20.0087 20.0004 19.9921 19.984 19.9764 19.9694 19.9631 19.9578 19.9535 19.9504 19.9484 19.9475 19.9476 19.9489 19.9511 19.9547 19.9602 19.9685 19.9814 20.001 20.0297 20.0686 20.1156 20.1619 20.1867 20.1513 19.9947 19.6319 
19.0822 19.5354 19.829 19.9951 20.0732 20.0979 20.0951 20.0814 20.0659 20.0529 20.0435 20.0373 20.0333 20.0304 20.0279 20.0253 20.0221 20.0183 20.014 20.0092 20.0041 19.9988 19.9935 19.9883 19.9835 19.979 19.9751 19.9719 19.9694 19.9677 19.9668 19.9666 19.9672 19.9685 19.9703 19.9724 19.975 19.9781 19.9824 19.9888 19.9992 20.0162 20.0428 20.0813 20.1315 20.1866 20.2285 20.2206 20.1017 19.7819 
19.0314 19.47 19.7709 19.9518 20.044 20.0793 20.0829 20.072 20.057 20.043 20.0321 20.0242 20.0189 20.0151 20.0122 20.0096 20.0069 20.0041 20.0011 19.9979 19.9947 19.9916 19.9886 19.9859 19.9835 19.9816 19.9802 19.9792 19.9789 19.979 19.9797 19.9809 19.9825 19.9843 19.9863 19.9882 19.9899 19.9917 19.994 19.9979 20.0054 20.0194 20.0434 20.081 20.1336 20.1973 20.2568 20.2788 20.2032 19.9372 
19.0044 19.4163 19.7162 19.907 20.0114 20.0571 20.0678 20.0611 20.048 20.0345 20.0233 20.015 20.0093 20.0054 20.0027 20.0006 19.9988 19.9971 19.9954 19.9937 19.992 19.9905 19.9892 19.9881 19.9873 19.9869 19.9868 19.9871 19.9877 19.9887 19.9899 19.9914 19.9931 19.9947 19.9961 19.9972 19.9979 19.9982 19.9985 20 20.0047 20.0155 20.0368 20.0729 20.1273 20.1986 20.2751 20.3274 20.2982 20.0941 
19.002 19.3766 19.6678 19.864 19.9784 20.0339 20.0523 20.0506 20.0403 20.0283 20.0176 20.0095 20.0039 20.0002 19.9979 19.9965 19.9954 19.9946 19.9939 19.9933 19.9927 19.9923 19.992 19.9919 19.992 19.9923 19.9928 19.9935 19.9944 19.9955 19.9968 19.9981 19.9994 20.0005 20.0013 20.0016 20.0012 20.0002 19.9989 19.9983 20.0003 20.0082 20.0266 20.0608 20.1159 20.1933 20.2853 20.3671 20.3855 20.2487 
19.0241 19.3524 19.628 19.8248 19.9469 20.0112 20.0372 20.041 20.0342 20.0241 20.0145 20.0069 20.0015 19.9982 19.9962 19.9952 19.9948 19.9946 19.9946 19.9946 19.9947 19.9949 19.9952 19.9955 19.996 19.9965 19.9972 19.998 19.9988 19.9998 20.0008 20.0017 20.0026 20.0032 20.0035 20.0031 20.0019 19.9999 19.9973 19.995 19.9948 19.9999 20.0151 20.0468 20.1015 20.1832 20.2885 20.3977 20.4632 20.3971 
19.0702 19.3443 19.5977 19.7908 19.9177 19.9896 20.0228 20.0322 20.0292 20.0214 20.0131 20.0061 20.0011 19.998 19.9963 19.9956 19.9954 19.9956 19.996 19.9964 19.9968 19.9973 19.9978 19.9983 19.9988 19.9994 20 20.0006 20.0013 20.002 20.0026 20.0033 20.0038 20.004 20.0039 20.0031 20.0014 19.9988 19.9952 19.9916 19.9894 19.9918 20.0038 20.0322 20.0851 20.1692 20.2851 20.4188 20.5298 20.5358 
19.1393 19.3525 19.5778 19.7625 19.8913 19.9693 20.009 20.0238 20.0248 20.0195 20.0126 20.0063 20.0017 19.9987 19.9971 19.9965 19.9965 19.9969 19.9974 19.9979 19.9985 19.999 19.9995 20 20.0005 20.001 20.0015 20.0019 20.0023 20.0028 20.0032 20.0035 20.0038 20.0038 20.0035 20.0025 20.0006 19.9976 19.9934 19.9887 19.9848 19.9846 19.9932 20.0177 20.0676 20.1518 20.2753 20.4302 20.5835 20.6613 
19.2295 19.3769 19.5686 19.7405 19.8683 19.9504 19.9957 20.0157 20.0205 20.0178 20.0124 20.0069 20.0026 19.9998 19.9982 19.9976 19.9976 19.9979 19.9984 19.999 19.9996 20.0001 20.0006 20.001 20.0014 20.0017 20.002 20.0023 20.0025 20.0028 20.003 20.0032 20.0033 20.0032 20.0028 20.0018 19.9999 19.9967 19.9922 19.9867 19.9812 19.9785 19.9835 20.0036 20.0491 20.1314 20.2592 20.4313 20.6231 20.7705 
19.3387 19.4167 19.5702 19.7253 19.8488 19.9331 19.9829 20.0075 20.016 20.0159 20.0121 20.0075 20.0035 20.0008 19.9992 19.9985 19.9984 19.9986 19.9991 19.9996 20.0001 20.0006 20.001 20.0013 20.0016 20.0018 20.002 20.0022 20.0023 20.0024 20.0025 20.0026 20.0027 20.0026 20.0022 20.0013 19.9995 19.9964 19.9917 19.9855 19.9787 19.9736 19.9749 19.99 20.03 20.1082 20.2372 20.4221 20.6474 20.8607 
19.4642 19.4709 19.5825 19.7169 19.8332 19.9176 19.9707 19.9993 20.0113 20.0137 20.0115 20.0078 20.0043 20.0016 19.9999 19.9991 19.9989 19.9991 19.9995 19.9999 20.0003 20.0007 20.0011 20.0013 20.0015 20.0016 20.0017 20.0018 20.0018 20.0019 20.0019 20.002 20.0021 20.002 20.0018 20.001 19.9994 19.9964 19.9917 19.9851 19.9772 19.9698 19.9673 19.9771 20.0106 20.0827 20.2097 20.4026 20.6559 20.9298 
19.6029 19.5382 19.6052 19.7155 19.8217 19.9042 19.9592 19.9911 20.0062 20.0111 20.0105 20.0078 20.0047 20.0022 20.0005 19.9996 19.9993 19.9993 19.9996 19.9999 20.0003 20.0006 20.0009 20.0011 20.0012 20.0013 20.0014 20.0014 20.0014 20.0014 20.0014 20.0015 20.0016 20.0016 20.0015 20.0009 19.9995 19.9968 19.9922 19.9854 19.9765 19.967 19.9608 19.965 19.9911 20.0554 20.1771 20.3734 20.6484 20.9759 
19.7513 19.6169 19.6375 19.7211 19.8147 19.8931 19.9488 19.983 20.001 20.0081 20.0092 20.0075 20.0049 20.0026 20.0009 19.9999 19.9994 19.9994 19.9996 19.9998 20.0001 20.0004 20.0006 20.0008 20.0009 20.001 20.001 20.001 20.0009 20.0009 20.0009 20.001 20.0012 20.0013 20.0013 20.001 19.9999 19.9975 19.9931 19.9861 19.9765 19.9652 19.9555 19.9539 19.972 20.0267 20.1402 20.335 20.6249 20.998 
19.9059 19.705 19.6788 19.7336 19.8121 19.8846 19.9395 19.9753 19.9956 20.0049 20.0075 20.0068 20.0049 20.0028 20.0011 20.0001 19.9995 19.9994 19.9995 19.9997 19.9999 20.0002 20.0004 20.0005 20.0006 20.0006 20.0006 20.0006 20.0006 20.0005 20.0006 20.0007 20.0009 20.0011 20.0013 20.0011 20.0004 19.9983 19.9942 19.9873 19.9772 19.9643 19.9512 19.944 19.9535 19.9975 20.0999 20.2884 20.586 20.9956 
20.0628 19.8003 19.7279 19.7526 19.8142 19.8789 19.9316 19.9682 19.9902 20.0014 20.0056 20.006 20.0046 20.0028 20.0013 20.0002 19.9996 19.9994 19.9994 19.9995 19.9998 20 20.0001 20.0003 20.0003 20.0004 20.0004 20.0003 20.0003 20.0003 20.0003 20.0004 20.0006 20.0009 20.0012 20.0013 20.0009 19.9992 19.9955 19.9888 19.9784 19.9642 19.9482 19.9354 19.9363 19.9683 20.0571 20.2347 20.5326 20.9686 
20.2181 19.9005 19.7837 19.7777 19.8208 19.8762 19.9254 19.9617 19.985 19.9978 20.0035 20.0049 20.0042 20.0028 20.0014 20.0003 19.9997 19.9994 19.9993 19.9994 19.9996 19.9998 19.9999 20.0001 20.0001 20.0002 20.0002 20.0001 20.0001 20 20.0001 20.0002 20.0004 20.0008 20.0012 20.0015 20.0013 20.0001 19.9969 19.9906 19.9802 19.9651 19.9464 19.9284 19.9205 19.9399 20.0129 20.1752 20.4662 20.9178 
20.3681 20.0032 19.8449 19.8082 19.8318 19.8764 19.921 19.9562 19.9802 19.9943 20.0012 20.0036 20.0036 20.0026 20.0014 20.0004 19.9998 19.9994 19.9993 19.9994 19.9995 19.9997 19.9998 19.9999 20 20 20 20 19.9999 19.9999 19.9999 20 20.0002 20.0006 20.0012 20.0017 20.0018 20.001 19.9983 19.9926 19.9824 19.9667 19.9459 19.9231 19.9067 19.9129 19.9684 20.1114 20.3883 20.8443 
20.509 20.1058 19.9098 19.8434 19.8468 19.8797 19.9184 19.9517 19.9757 19.9908 19.9989 20.0023 20.003 20.0024 20.0014 20.0005 19.9998 19.9995 19.9993 19.9993 19.9994 19.9996 19.9997 19.9998 19.9999 20 19.9999 19.9999 19.9998 19.9998 19.9998 19.9999 20.0001 20.0005 20.0011 20.0018 20.0022 20.0019 19.9998 19.9947 19.985 19.9691 19.9467 19.9197 19.8952 19.888 19.9246 20.0448 20.3008 20.7501 
20.6374 20.2058 19.977 19.8825 19.8657 19.8859 19.9179 19.9484 19.9719 19.9875 19.9965 20.0008 20.0022 20.0021 20.0014 20.0006 19.9999 19.9995 19.9994 19.9994 19.9994 19.9996 19.9997 19.9998 19.9999 19.9999 19.9999 19.9999 19.9998 19.9997 19.9997 19.9997 20 20.0004 20.001 20.0018 20.0026 20.0027 20.0013 19.997 19.988 19.9723 19.9488 19.9182 19.8862 19.8659 19.8827 19.9771 20.2058 20.6374 
20.7501 20.3007 20.0447 19.9244 19.8878 19.8948 19.9193 19.9463 19.9687 19.9845 19.9942 19.9993 20.0014 20.0017 20.0013 20.0006 20 19.9997 19.9995 19.9994 19.9995 19.9996 19.9997 19.9998 19.9999 19.9999 19.9999 19.9999 19.9998 19.9997 19.9996 19.9997 19.9999 20.0003 20.0009 20.0019 20.0029 20.0034 20.0027 19.9993 19.9912 19.9761 19.9521 19.9187 19.8799 19.8471 19.8436 19.9099 20.1059 20.509 
20.8443 20.3882 20.1112 19.9682 19.9126 19.9064 19.9227 19.9454 19.9662 19.9819 19.9921 19.9978 20.0005 20.0013 20.0011 20.0006 20.0001 19.9998 19.9996 19.9995 19.9996 19.9997 19.9998 19.9999 20 20 20 19.9999 19.9999 19.9997 19.9997 19.9996 19.9998 20.0002 20.0008 20.0019 20.0031 20.0041 20.0041 20.0016 19.9946 19.9805 19.9565 19.9212 19.8767 19.832 19.8084 19.845 20.0033 20.3681 
20.9178 20.4661 20.1751 20.0127 19.9396 19.9201 19.928 19.9459 19.9645 19.9796 19.99 19.9963 19.9995 20.0008 20.0009 20.0007 20.0003 19.9999 19.9998 19.9997 19.9997 19.9998 19.9999 20 20.0001 20.0002 20.0001 20.0001 20 19.9998 19.9997 19.9997 19.9997 20.0001 20.0007 20.0018 20.0032 20.0046 20.0053 20.0038 19.9982 19.9853 19.962 19.9256 19.8764 19.821 19.7778 19.7838 19.9006 20.2181 
20.9686 20.5326 20.2346 20.0569 19.968 19.9359 19.9349 19.9477 19.9637 19.9778 19.9882 19.9949 19.9986 20.0003 20.0008 20.0007 20.0004 20.0001 20 19.9999 20 20 20.0002 20.0003 20.0003 20.0004 20.0003 20.0003 20.0001 20 19.9998 19.9997 19.9997 20 20.0006 20.0017 20.0032 20.005 20.0063 20.0059 20.0017 19.9905 19.9684 19.9318 19.8791 19.8143 19.7527 19.728 19.8003 20.0628 
20.9956 20.5859 20.2883 20.0996 19.9971 19.9531 19.9435 19.9507 19.9637 19.9766 19.9867 19.9936 19.9977 19.9998 20.0006 20.0007 20.0006 20.0004 20.0003 20.0002 20.0003 20.0004 20.0005 20.0005 20.0006 20.0006 20.0006 20.0005 20.0004 20.0002 19.9999 19.9998 19.9997 19.9998 20.0004 20.0014 20.0031 20.0051 20.0071 20.0078 20.0051 19.9958 19.9755 19.9396 19.8848 19.8123 19.7337 19.6788 19.705 19.9059 
20.998 20.6248 20.3349 20.1399 20.0264 19.9715 19.9534 19.9549 19.9646 19.9759 19.9855 19.9925 19.9969 19.9994 20.0005 20.0009 20.0009 20.0008 20.0007 20.0007 20.0007 20.0008 20.0008 20.0009 20.0009 20.0009 20.0009 20.0007 20.0005 20.0003 20 19.9998 19.9996 19.9996 20.0001 20.0011 20.0028 20.0051 20.0076 20.0094 20.0083 20.0011 19.9831 19.9489 19.8932 19.8148 19.7212 19.6375 19.6169 19.7513 
20.9759 20.6483 20.3733 20.1768 20.0551 19.9907 19.9646 19.9604 19.9666 19.976 19.9849 19.9917 19.9964 19.9991 20.0005 20.0011 20.0013 20.0013 20.0012 20.0012 20.0012 20.0012 20.0013 20.0013 20.0013 20.0012 20.0011 20.0009 20.0007 20.0003 20 19.9996 19.9994 19.9993 19.9996 20.0005 20.0022 20.0047 20.0078 20.0106 20.0112 20.0063 19.9911 19.9593 19.9043 19.8218 19.7156 19.6052 19.5382 19.6029 
20.9298 20.6559 20.4026 20.2095 20.0825 20.0104 19.9769 19.9671 19.9695 19.9769 19.9848 19.9914 19.9961 19.9991 20.0008 20.0016 20.0019 20.0019 20.0019 20.0018 20.0018 20.0017 20.0017 20.0016 20.0015 20.0014 20.0012 20.0009 20.0006 20.0002 19.9997 19.9993 19.9989 19.9987 19.9989 19.9997 20.0014 20.0041 20.0077 20.0114 20.0137 20.0113 19.9993 19.9708 19.9177 19.8333 19.717 19.5826 19.471 19.4642 
20.8607 20.6475 20.4221 20.2373 20.1083 20.0301 19.9901 19.975 19.9737 19.9788 19.9855 19.9917 19.9964 19.9995 20.0013 20.0022 20.0026 20.0026 20.0026 20.0024 20.0023 20.0021 20.0019 20.0017 20.0015 20.0012 20.0009 20.0005 20.0001 19.9996 19.9991 19.9986 19.9981 19.9978 19.998 19.9987 20.0004 20.0032 20.0072 20.0119 20.0158 20.0161 20.0076 19.9831 19.9333 19.849 19.7255 19.5704 19.4168 19.3387 
20.7705 20.6232 20.4316 20.2597 20.1319 20.0497 20.0043 19.9841 19.9792 19.9818 19.9872 19.9927 19.9972 20.0002 20.0021 20.003 20.0033 20.0033 20.0031 20.0028 20.0024 20.0021 20.0017 20.0013 20.0009 20.0005 20.0001 19.9996 19.9991 19.9985 19.998 19.9974 19.9969 19.9966 19.9967 19.9975 19.9992 20.0022 20.0067 20.0123 20.0179 20.0207 20.016 19.9962 19.9509 19.8688 19.741 19.5689 19.3771 19.2295 
20.6613 20.5838 20.4308 20.2762 20.153 20.0689 20.0192 19.9946 19.986 19.9861 19.9899 19.9945 19.9984 20.0012 20.0029 20.0037 20.0039 20.0036 20.0031 20.0025 20.0019 20.0013 20.0007 20 19.9995 19.9989 19.9983 19.9978 19.9973 19.9967 19.9963 19.9958 19.9955 19.9953 19.9955 19.9963 19.9982 20.0014 20.0063 20.0129 20.0201 20.0256 20.0248 20.01 19.9704 19.8923 19.7633 19.5784 19.3528 19.1393 
20.5358 20.5304 20.42 20.2868 20.1713 20.0874 20.0347 20.0062 19.9941 19.9914 19.9933 19.9967 19.9999 20.0021 20.0034 20.0038 20.0035 20.0029 20.002 20.0011 20.0001 19.9991 19.9982 19.9974 19.9967 19.996 19.9955 19.995 19.9946 19.9944 19.9941 19.994 19.994 19.9941 19.9947 19.9958 19.9979 20.0015 20.0069 20.0143 20.023 20.0311 20.0342 20.0249 19.9916 19.9195 19.7922 19.5987 19.3448 19.0702 
20.3971 20.4641 20.3994 20.2909 20.1862 20.1047 20.0502 20.0184 20.0029 19.9974 19.997 19.9988 20.0007 20.0021 20.0026 20.0023 20.0015 20.0003 19.9989 19.9975 19.9961 19.9949 19.9938 19.993 19.9923 19.9918 19.9915 19.9914 19.9915 19.9918 19.9921 19.9926 19.9933 19.9941 19.9952 19.9968 19.9994 20.0034 20.0093 20.0174 20.0275 20.0379 20.0447 20.0408 20.0146 19.9497 19.8271 19.6295 19.3531 19.0241 
20.2487 20.3866 20.3692 20.2883 20.1969 20.1198 20.0647 20.0302 20.0113 20.0027 19.9997 19.9993 19.9996 19.9997 19.9991 19.9979 19.9963 19.9945 19.9926 19.9909 19.9893 19.9881 19.9871 19.9865 19.9863 19.9864 19.9869 19.9877 19.9887 19.99 19.9914 19.993 19.9947 19.9964 19.9984 20.0008 20.0039 20.0083 20.0146 20.0233 20.0342 20.0464 20.0565 20.0578 20.0387 19.9824 19.8669 19.6697 19.3775 19.002 
20.0941 20.2992 20.3294 20.2778 20.2018 20.1307 20.0761 20.0393 20.0172 20.0051 19.9991 19.9962 19.9944 19.9928 19.9909 19.9888 19.9865 19.9842 19.9822 19.9805 19.9792 19.9785 19.9783 19.9787 19.9797 19.9812 19.9831 19.9854 19.9881 19.9911 19.9941 19.9973 20.0004 20.0034 20.0064 20.0096 20.0132 20.0178 20.024 20.0326 20.0438 20.057 20.0694 20.0751 20.063 20.0158 19.9099 19.7178 19.4171 19.0044 
19.9372 20.2034 20.2793 20.2576 20.1981 20.1342 20.0809 20.0422 20.0168 20.0012 19.9919 19.9861 19.9821 19.9788 19.9758 19.973 19.9705 19.9684 19.9669 19.9662 19.9663 19.9672 19.9689 19.9715 19.9747 19.9786 19.9831 19.9879 19.993 19.9983 20.0035 20.0085 20.0133 20.0176 20.0215 20.025 20.0286 20.0328 20.0382 20.0456 20.0558 20.0685 20.0818 20.0906 20.0847 20.0471 19.953 19.7709 19.4697 19.0314 
19.7819 20.0999 20.2173 20.224 20.1811 20.1249 20.0735 20.0334 20.005 19.9859 19.9735 19.9652 19.9594 19.955 19.9517 19.9493 19.9478 19.9474 19.9481 19.95 19.9531 19.9574 19.9627 19.9689 19.976 19.9837 19.9918 20 20.0083 20.0163 20.0239 20.0307 20.0367 20.0417 20.0456 20.0485 20.0508 20.053 20.0559 20.0605 20.0677 20.0779 20.09 20.1 20.099 20.071 19.9908 19.8242 19.5323 19.0822 
19.6319 19.9887 20.1401 20.1716 20.144 20.0955 20.0465 20.0057 19.9751 19.9536 19.9391 19.9296 19.9235 19.9199 19.9184 19.9186 19.9206 19.9244 19.9299 19.937 19.9457 19.9557 19.9667 19.9787 19.9912 20.0039 20.0165 20.0287 20.0403 20.0507 20.0599 20.0675 20.0733 20.0771 20.0791 20.0792 20.0777 20.0754 20.0732 20.0721 20.0736 20.0785 20.0867 20.0954 20.0976 20.0788 20.0149 19.8705 19.5999 19.1557 
19.491 19.8685 20.0425 20.0924 20.0774 20.0362 19.9906 19.9509 19.9204 19.899 19.8853 19.8777 19.8747 19.8755 19.8795 19.8864 19.8959 19.9078 19.9218 19.9377 19.9551 19.9736 19.9927 20.0121 20.0312 20.0495 20.0666 20.0821 20.0955 20.1066 20.115 20.1204 20.1228 20.122 20.1182 20.1115 20.1024 20.0917 20.0805 20.0701 20.0623 20.0586 20.0598 20.0645 20.0679 20.0581 20.0135 19.8992 19.6652 19.2499 
19.3626 19.7367 19.9173 19.9767 19.9707 19.937 19.8972 19.8624 19.8367 19.8206 19.8133 19.8134 19.8196 19.8309 19.8466 19.866 19.8886 19.9138 19.941 19.9696 19.9989 20.0282 20.0569 20.0842 20.1094 20.1319 20.1512 20.1668 20.1783 20.1853 20.1877 20.1855 20.1785 20.1671 20.1514 20.1321 20.1098 20.0855 20.0607 20.0369 20.0163 20.0009 19.9923 19.9909 19.9939 19.9932 19.9713 19.8967 19.7185 19.3626 
19.2499 19.5891 19.7557 19.8142 19.8145 19.7906 19.7623 19.74 19.7277 19.7262 19.7348 19.7521 19.7767 19.8075 19.8432 19.8827 19.9251 19.9691 20.0139 20.0583 20.1012 20.1417 20.1786 20.2112 20.2385 20.2601 20.2752 20.2835 20.2849 20.2792 20.2666 20.2474 20.222 20.191 20.1552 20.1157 20.0735 20.0301 19.9872 19.9468 19.9112 19.8828 19.864 19.8563 19.8593 19.8687 19.8729 19.8478 19.7476 19.491 
19.1557 19.4207 19.5504 19.599 19.6067 19.6001 19.5947 19.5981 19.6134 19.6409 19.6795 19.7274 19.783 19.8444 19.9097 19.9773 20.0453 20.1122 20.1763 20.236 20.2899 20.3366 20.3751 20.4043 20.4236 20.4325 20.4307 20.4183 20.3956 20.3631 20.3217 20.2723 20.2162 20.1546 20.0892 20.0216 19.9536 19.8872 19.8244 19.7676 19.719 19.6813 19.6569 19.6478 19.6553 19.6782 19.7117 19.7423 19.7393 19.6319 
19.0822 19.2262 19.3004 19.3385 19.3639 19.3911 19.428 19.4781 19.5419 19.6182 19.7051 19.7999 19.9002 20.0032 20.1061 20.2065 20.3017 20.3895 20.4677 20.5343 20.5878 20.6268 20.6503 20.6579 20.6493 20.6246 20.5847 20.5303 20.4628 20.3839 20.2956 20.2 20.0994 19.9963 19.8933 19.7929 19.6977 19.6102 19.5327 19.4675 19.4169 19.3828 19.3669 19.3709 19.3956 19.4414 19.5074 19.5911 19.6854 19.7819 
19.0314 19.002 19.0241 19.0702 19.1393 19.2295 19.3387 19.4642 19.6029 19.7513 19.9059 20.0628 20.2181 20.3681 20.509 20.6374 20.7501 20.8443 20.9178 20.9686 20.9956 20.998 20.9759 20.9298 20.8607 20.7705 20.6613 20.5358 20.3971 20.2487 20.0941 19.9372 19.7819 19.6319 19.491 19.3626 19.2499 19.1557 19.0822 19.0314 19.0044 19.002 19.0241 19.0702 19.1393 19.2295 19.3387 19.4642 19.6029 19.9372 
