# vtk DataFile Version 3.0
Temperature distribution on a 2D grid
ASCII

DATASET STRUCTURED_POINTS
DIMENSIONS 50 50 1
ORIGIN 0.0 0.0 0.0
SPACING 0.01 0.01 1.0

POINT_DATA 2500
SCALARS temperature double
LOOKUP_TABLE default
20.0941 20.0628 20.2181 20.3681 20.509 20.6374 20.7501 20.8443 20.9178 20.9686 20.9956 20.998 20.9759 20.9298 20.8607 20.7705 20.6613 20.5358 20.3971 20.2487 20.0941 19.9372 19.7819 19.6319 19.491 19.3626 19.2499 19.1557 19.0822 19.0314 19.0044 19.002 19.0241 19.0702 19.1393 19.2295 19.3387 19.4642 19.6029 19.7513 19.9059 20.0628 20.2181 20.3681 20.509 20.6374 20.7501 20.8443 20.9178 20.9956 
20.2487 20.0819 20.0782 20.1094 20.1448 20.1777 20.2065 20.2302 20.2482 20.2601 20.2656 20.2645 20.257 20.2431 20.2232 20.1978 20.1676 20.1332 20.0956 20.0556 20.0142 19.9725 19.9315 19.8921 19.8554 19.8223 19.7935 19.7698 19.7518 19.7399 19.7344 19.7355 19.743 19.7569 19.7768 19.8022 19.8324 19.8668 19.9044 19.9444 19.9858 20.0275 20.0685 20.1079 20.1447 20.1786 20.2124 20.2672 20.4416 20.998 
20.3971 20.1014 20.0315 20.0242 20.0289 20.0348 20.0402 20.0446 20.048 20.0501 20.0511 20.0507 20.0491 20.0464 20.0424 20.0374 20.0315 20.0249 20.0176 20.0098 20.0019 19.9939 19.986 19.9785 19.9715 19.9652 19.9598 19.9554 19.952 19.9499 19.9489 19.9493 19.9509 19.9536 19.9576 19.9626 19.9685 19.9751 19.9824 19.9902 19.9981 20.0061 20.014 20.0215 20.0286 20.0358 20.0476 20.0911 20.2908 20.9759 
20.5358 20.134 20.0271 20.0074 20.0052 20.0057 20.0065 20.0072 20.0077 20.0081 20.0082 20.0081 20.0079 20.0074 20.0068 20.006 20.005 20.0039 20.0027 20.0015 20.0002 19.9989 19.9977 19.9965 19.9954 19.9944 19.9935 19.9928 19.9923 19.9919 19.9918 19.9919 19.9921 19.9926 19.9932 19.994 19.995 19.9961 19.9973 19.9985 19.9998 20.0011 20.0023 20.0035 20.0048 20.0067 20.0138 20.053 20.248 20.9298 
20.6613 20.1674 20.0318 20.0055 20.0014 20.0009 20.0009 20.001 20.0011 20.0012 20.0012 20.0012 20.0011 20.0011 20.001 20.0008 20.0007 20.0006 20.0004 20.0002 20 19.9998 19.9997 19.9995 19.9993 19.9992 19.9991 19.999 19.9989 19.9988 19.9988 19.9988 19.9989 19.9989 19.999 19.9992 19.9993 19.9994 19.9996 19.9998 20 20.0002 20.0003 20.0005 20.0008 20.0018 20.0077 20.0433 20.2235 20.8607 
20.7705 20.1974 20.0374 20.006 20.0009 20.0002 20.0001 20.0001 20.0001 20.0002 20.0002 20.0002 20.0001 20.0001 20.0001 20.0001 20.0001 20.0001 20.0001 20 20 20 20 19.9999 19.9999 19.9999 19.9999 19.9999 19.9999 19.9998 19.9998 19.9998 19.9999 19.9999 19.9999 19.9999 19.9999 19.9999 19.9999 20 20 20 20 20.0001 20.0002 20.0009 20.0061 20.0375 20.1975 20.7705 
20.8607 20.2227 20.0423 20.0068 20.001 20.0001 20 20 20 20 20 20 20 20 20 20 20 20 20 20 20 20 20 20 20 20 20 20 20 20 20 20 20 20 20 20 20 20 20 20 20 20 20 20 20.0001 20.0007 20.005 20.0315 20.1672 20.6613 
20.9298 20.2425 20.0462 20.0074 20.0011 20.0001 20 20 20 20 20 20 20 20 20 20 20 20 20 20 20 20 20 20 20 20 20 20 20 20 20 20 20 20 20 20 20 20 20 20 20 20 20 20 20.0001 20.0006 20.0039 20.0248 20.1329 20.5358 
20.9759 20.2563 20.049 20.0078 20.0011 20.0001 20 20 20 20 20 20 20 20 20 20 20 20 20 20 20 20 20 20 20 20 20 20 20 20 20 20 20 20 20 20 20 20 20 20 20 20 20 20 20.0001 20.0004 20.0027 20.0175 20.0954 20.3971 
20.998 20.2639 20.0506 20.0081 20.0012 20.0002 20 20 20 20 20 20 20 20 20 20 20 20 20 20 20 20 20 20 20 20 20 20 20 20 20 20 20 20 20 20 20 20 20 20 20 20 20 20 20 20.0002 20.0015 20.0098 20.0555 20.2487 
20.9956 20.2649 20.0509 20.0082 20.0012 20.0002 20 20 20 20 20 20 20 20 20 20 20 20 20 20 20 20 20 20 20 20 20 20 20 20 20 20 20 20 20 20 20 20 20 20 20 20 20 20 20 20 20.0002 20.0019 20.0142 20.0941 
20.9686 20.2594 20.05 20.008 20.0011 20.0002 20 20 20 20 20 20 20 20 20 20 20 20 20 20 20 20 20 20 20 20 20 20 20 20 20 20 20 20 20 20 20 20 20 20 20 20 20 20 20 19.9998 19.9989 19.9939 19.9726 19.9372 
20.9178 20.2476 20.0479 20.0077 20.0011 20.0001 20 20 20 20 20 20 20 20 20 20 20 20 20 20 20 20 20 20 20 20 20 20 20 20 20 20 20 20 20 20 20 20 20 20 20 20 20 20 20 19.9997 19.9977 19.986 19.9316 19.7819 
20.8443 20.2296 20.0445 20.0072 20.001 20.0001 20 20 20 20 20 20 20 20 20 20 20 20 20 20 20 20 20 20 20 20 20 20 20 20 20 20 20 20 20 20 20 20 20 20 20 20 20 20 19.9999 19.9995 19.9965 19.9785 19.8924 19.6319 
20.7501 20.206 20.0401 20.0065 20.0009 20.0001 20 20 20 20 20 20 20 20 20 20 20 20 20 20 20 20 20 20 20 20 20 20 20 20 20 20 20 20 20 20 20 20 20 20 20 20 20 20 19.9999 19.9993 19.9954 19.9716 19.8558 19.491 
20.6374 20.1773 20.0347 20.0056 20.0008 20.0001 20 20 20 20 20 20 20 20 20 20 20 20 20 20 20 20 20 20 20 20 20 20 20 20 20 20 20 20 20 20 20 20 20 20 20 20 20 20 19.9999 19.9992 19.9944 19.9653 19.8227 19.3626 
20.509 20.1442 20.0284 20.0046 20.0007 20.0001 20 20 20 20 20 20 20 20 20 20 20 20 20 20 20 20 20 20 20 20 20 20 20 20 20 20 20 20 20 20 20 20 20 20 20 20 20 20 19.9999 19.9991 19.9935 19.9599 19.794 19.2499 
20.3681 20.1076 20.0215 20.0035 20.0005 20.0001 20 20 20 20 20 20 20 20 20 20 20 20 20 20 20 20 20 20 20 20 20 20 20 20 20 20 20 20 20 20 20 20 20 20 20 20 20 20 19.9999 19.999 19.9928 19.9555 19.7704 19.1557 
20.2181 20.0684 20.014 20.0023 20.0003 20 20 20 20 20 20 20 20 20 20 20 20 20 20 20 20 20 20 20 20 20 20 20 20 20 20 20 20 20 20 20 20 20 20 20 20 20 20 20 19.9999 19.9989 19.9923 19.9521 19.7524 19.0822 
20.0628 20.0274 20.0061 20.0011 20.0002 20 20 20 20 20 20 20 20 20 20 20 20 20 20 20 20 20 20 20 20 20 20 20 20 20 20 20 20 20 20 20 20 20 20 20 20 20 20 20 19.9998 19.9989 19.992 19.95 19.7406 19.0314 
19.9059 19.9858 19.9981 19.9998 20 20 20 20 20 20 20 20 20 20 20 20 20 20 20 20 20 20 20 20 20 20 20 20 20 20 20 20 20 20 20 20 20 20 20 20 20 20 20 20 19.9998 19.9988 19.9918 19.9491 19.7351 19.0044 
19.7513 19.9445 19.9902 19.9985 19.9998 20 20 20 20 20 20 20 20 20 20 20 20 20 20 20 20 20 20 20 20 20 20 20 20 20 20 20 20 20 20 20 20 20 20 20 20 20 20 20 19.9998 19.9988 19.9919 19.9494 19.7361 19.002 
19.6029 19.9046 19.9825 19.9973 19.9996 19.9999 20 20 20 20 20 20 20 20 20 20 20 20 20 20 20 20 20 20 20 20 20 20 20 20 20 20 20 20 20 20 20 20 20 20 20 20 20 20 19.9999 19.9989 19.9922 19.951 19.7437 19.0241 
19.4642 19.8671 19.9752 19.9961 19.9994 19.9999 20 20 20 20 20 20 20 20 20 20 20 20 20 20 20 20 20 20 20 20 20 20 20 20 20 20 20 20 20 20 20 20 20 20 20 20 20 20 19.9999 19.9989 19.9926 19.9538 19.7575 19.0702 
19.3387 19.8328 19.9685 19.995 19.9993 19.9999 20 20 20 20 20 20 20 20 20 20 20 20 20 20 20 20 20 20 20 20 20 20 20 20 20 20 20 20 20 20 20 20 20 20 20 20 20 20 19.9999 19.999 19.9933 19.9577 19.7773 19.1393 
19.2295 19.8026 19.9627 19.9941 19.9992 19.9999 20 20 20 20 20 20 20 20 20 20 20 20 20 20 20 20 20 20 20 20 20 20 20 20 20 20 20 20 20 20 20 20 20 20 20 20 20 20 19.9999 19.9992 19.9941 19.9627 19.8026 19.2295 
19.1393 19.7773 19.9577 19.9933 19.999 19.9999 20 20 20 20 20 20 20 20 20 20 20 20 20 20 20 20 20 20 20 20 20 20 20 20 20 20 20 20 20 20 20 20 20 20 20 20 20 20 19.9999 19.9993 19.995 19.9685 19.8328 19.3387 
19.0702 19.7575 19.9538 19.9926 19.9989 19.9999 20 20 20 20 20 20 20 20 20 20 20 20 20 20 20 20 20 20 20 20 20 20 20 20 20 20 20 20 20 20 20 20 20 20 20 20 20 20 19.9999 19.9994 19.9961 19.9752 19.8671 19.4642 
19.0241 19.7437 19.951 19.9922 19.9989 19.9999 20 20 20 20 20 20 20 20 20 20 20 20 20 20 20 20 20 20 20 20 20 20 20 20 20 20 20 20 20 20 20 20 20 20 20 20 20 20 19.9999 19.9996 19.9973 19.9825 19.9046 19.6029 
19.002 19.7361 19.9494 19.9919 19.9988 19.9998 20 20 20 20 20 20 20 20 20 20 20 20 20 20 20 20 20 20 20 20 20 20 20 20 20 20 20 20 20 20 20 20 20 20 20 20 20 20 20 19.9998 19.9985 19.9902 19.9445 19.7513 
19.0044 19.7351 19.9491 19.9918 19.9988 19.9998 20 20 20 20 20 20 20 20 20 20 20 20 20 20 20 20 20 20 20 20 20 20 20 20 20 20 20 20 20 20 20 20 20 20 20 20 20 20 20 20 19.9998 19.9981 19.9858 19.9059 
19.0314 19.7406 19.95 19.992 19.9989 19.9998 20 20 20 20 20 20 20 20 20 20 20 20 20 20 20 20 20 20 20 20 20 20 20 20 20 20 20 20 20 20 20 20 20 20 20 20 20 20 20 20.0002 20.0011 20.0061 20.0274 20.0628 
19.0822 19.7524 19.9521 19.9923 19.9989 19.9999 20 20 20 20 20 20 20 20 20 20 20 20 20 20 20 20 20 20 20 20 20 20 20 20 20 20 20 20 20 20 20 20 20 20 20 20 20 20 20 20.0003 20.0023 20.014 20.0684 20.2181 
19.1557 19.7704 19.9555 19.9928 19.999 19.9999 20 20 20 20 20 20 20 20 20 20 20 20 20 20 20 20 20 20 20 20 20 20 20 20 20 20 20 20 20 20 20 20 20 20 20 20 20 20 20.0001 20.0005 20.0035 20.0215 20.1076 20.3681 
19.2499 19.794 19.9599 19.9935 19.9991 19.9999 20 20 20 20 20 20 20 20 20 20 20 20 20 20 20 20 20 20 20 20 20 20 20 20 20 20 20 20 20 20 20 20 20 20 20 20 20 20 20.0001 20.0007 20.0046 20.0284 20.1442 20.509 
19.3626 19.8227 19.9653 19.9944 19.9992 19.9999 20 20 20 20 20 20 20 20 20 20 20 20 20 20 20 20 20 20 20 20 20 20 20 20 20 20 20 20 20 20 20 20 20 20 20 20 20 20 20.0001 20.0008 20.0056 20.0347 20.1773 20.6374 
19.491 19.8558 19.9716 19.9954 19.9993 19.9999 20 20 20 20 20 20 20 20 20 20 20 20 20 20 20 20 20 20 20 20 20 20 20 20 20 20 20 20 20 20 20 20 20 20 20 20 20 20 20.0001 20.0009 20.0065 20.0401 20.206 20.7501 
19.6319 19.8924 19.9785 19.9965 19.9995 19.9999 20 20 20 20 20 20 20 20 20 20 20 20 20 20 20 20 20 20 20 20 20 20 20 20 20 20 20 20 20 20 20 20 20 20 20 20 20 20 20.0001 20.001 20.0072 20.0445 20.2296 20.8443 
19.7819 19.9316 19.986 19.9977 19.9997 20 20 20 20 20 20 20 20 20 20 20 20 20 20 20 20 20 20 20 20 20 20 20 20 20 20 20 20 20 20 20 20 20 20 20 20 20 20 20 20.0001 20.0011 20.0077 20.0479 20.2476 20.9178 
19.9372 19.9726 19.9939 19.9989 19.9998 20 20 20 20 20 20 20 20 20 20 20 20 20 20 20 20 20 20 20 20 20 20 20 20 20 20 20 20 20 20 20 20 20 20 20 20 20 20 20 20.0002 20.0011 20.008 20.05 20.2594 20.9686 
20.0941 20.0142 20.0019 20.0002 20 20 20 20 20 20 20 20 20 20 20 20 20 20 20 20 20 20 20 20 20 20 20 20 20 20 20 20 20 20 20 20 20 20 20 20 20 20 20 20 20.0002 20.0012 20.0082 20.0509 20.2649 20.9956 
20.2487 20.0555 20.0098 20.0015 20.0002 20 20 20 20 20 20 20 20 20 20 20 20 20 20 20 20 20 20 20 20 20 20 20 20 20 20 20 20 20 20 20 20 20 20 20 20 20 20 20 20.0002 20.0012 20.0081 20.0506 20.2639 20.998 
20.3971 20.0954 20.0175 20.0027 20.0004 20.0001 20 20 20 20 20 20 20 20 20 20 20 20 20 20 20 20 20 20 20 20 20 20 20 20 20 20 20 20 20 20 20 20 20 20 20 20 20 20 20.0001 20.0011 20.0078 20.049 20.2563 20.9759 
20.5358 20.1329 20.0248 20.0039 20.0006 20.0001 20 20 20 20 20 20 20 20 20 20 20 20 20 20 20 20 20 20 20 20 20 20 20 20 20 20 20 20 20 20 20 20 20 20 20 20 20 20 20.0002 20.0011 20.0074 20.0462 20.2425 20.9298 
20.6613 20.1673 20.0316 20.0051 20.0008 20.0002 20.0001 20.0001 20 20 20 20 19.9999 19.9999 19.9999 19.9999 19.9999 19.9999 19.9999 19.9998 19.9998 19.9998 19.9999 19.9999 19.9999 19.9999 19.9999 19.9999 20 20 20 20 20.0001 20.0001 20.0001 20.0001 20.0001 20.0001 20.0001 20.0002 20.0002 20.0002 20.0001 20.0002 20.0002 20.0011 20.0068 20.0424 20.2227 20.8607 
20.7705 20.1982 20.0384 20.007 20.0018 20.0009 20.0007 20.0005 20.0003 20.0002 20 19.9998 19.9996 19.9994 19.9993 19.9992 19.999 19.9989 19.9989 19.9988 19.9988 19.9988 19.9989 19.999 19.9991 19.9992 19.9993 19.9995 19.9997 19.9998 20 20.0002 20.0004 20.0006 20.0007 20.0008 20.001 20.0011 20.0011 20.0012 20.0012 20.0012 20.0011 20.001 20.001 20.0017 20.0066 20.0378 20.1976 20.7705 
20.8607 20.2285 20.0496 20.0139 20.0074 20.0058 20.0046 20.0035 20.0023 20.0011 19.9998 19.9985 19.9973 19.9961 19.995 19.994 19.9932 19.9926 19.9921 19.9919 19.9918 19.9919 19.9923 19.9928 19.9935 19.9944 19.9954 19.9965 19.9977 19.9989 20.0002 20.0015 20.0027 20.0039 20.005 20.006 20.0068 20.0074 20.0079 20.0081 20.0082 20.0081 20.0077 20.0072 20.0066 20.0063 20.0096 20.0349 20.1692 20.6613 
20.9298 20.279 20.0916 20.0516 20.0412 20.0349 20.0285 20.0215 20.014 20.0061 19.9981 19.9902 19.9824 19.9751 19.9685 19.9626 19.9576 19.9536 19.9509 19.9493 19.9489 19.9499 19.952 19.9554 19.9598 19.9652 19.9715 19.9785 19.986 19.9939 20.0019 20.0098 20.0176 20.0249 20.0315 20.0374 20.0424 20.0464 20.0491 20.0507 20.0511 20.0501 20.048 20.0447 20.0403 20.0353 20.0323 20.0459 20.1447 20.5358 
20.9759 20.4458 20.2836 20.2358 20.2073 20.1778 20.1446 20.1079 20.0685 20.0275 19.9858 19.9444 19.9044 19.8668 19.8324 19.8022 19.7768 19.7569 19.743 19.7355 19.7344 19.7399 19.7518 19.7698 19.7935 19.8223 19.8554 19.8921 19.9315 19.9725 20.0142 20.0556 20.0956 20.1332 20.1676 20.1978 20.2232 20.2431 20.257 20.2645 20.2656 20.2601 20.2482 20.2302 20.2065 20.1781 20.147 20.1231 20.1517 20.3971 
20.998 20.9686 20.9178 20.8443 20.7501 20.6374 20.509 20.3681 20.2181 20.0628 19.9059 19.7513 19.6029 19.4642 19.3387 19.2295 19.1393 19.0702 19.0241 19.002 19.0044 19.0314 19.0822 19.1557 19.2499 19.3626 19.491 19.6319 19.7819 19.9372 20.0941 20.2487 20.3971 20.5358 20.6613 20.7705 20.8607 20.9298 20.9759 20.998 20.9956 20.9686 20.9178 20.8443 20.7501 20.6374 20.509 20.3681 20.2181 20.2487 
